/*--------------------------------*- C++ -*----------------------------------*\
  =========                 |
  \\      /  F ield         | OpenFOAM: The Open Source CFD Toolbox
   \\    /   O peration     | Website:  https://openfoam.org
    \\  /    A nd           | Version:  6
     \\/     M anipulation  |
\*---------------------------------------------------------------------------*/
FoamFile
{
    version     2.0;
    format      ascii;
    class       surfaceScalarField;
    location    "10";
    object      phi;
}
// * * * * * * * * * * * * * * * * * * * * * * * * * * * * * * * * * * * * * //

dimensions      [0 3 -1 0 0 0 0];

internalField   nonuniform List<scalar> 
7780
(
2
-3.71341e-17
2
-9.49879e-17
2
1.06445e-18
2
9.49577e-17
2
4.44856e-17
2
1.02716e-16
2
1.79801e-16
2
2.37519e-16
2
2.86106e-16
2
2.13939e-16
2
4.67512e-16
2
3.91874e-16
2
4.61442e-16
2
3.32486e-16
2
3.82671e-16
2
4.00289e-16
2
3.08442e-16
2
2.70993e-16
2
2.81329e-16
2
3.46017e-16
2
3.05291e-16
2
3.02318e-16
2
3.47738e-16
2
1.26414e-16
2
9.60708e-17
2
2.25605e-16
2
1.02297e-16
2
7.88573e-17
2
1.70359e-16
2
1.41019e-16
2
6.34648e-17
2
-2.39017e-17
2
-9.80664e-19
2
-1.99013e-16
2
-2.6229e-16
2
-3.61562e-16
2
-2.47206e-16
2
-2.89403e-16
2
-2.36502e-16
2
-3.04393e-16
2
-1.25574e-16
2
-1.73611e-16
2
-7.86068e-17
2
8.64456e-17
2
-3.44068e-17
2
-4.401e-17
2
-8.50105e-17
2
1.1784e-18
2
9.81868e-17
2
1.63895e-16
2
1.36428e-16
2
1.01467e-16
2
2.67815e-16
2
7.76998e-17
2
-9.95751e-17
2
1.78146e-16
2
4.36662e-16
2
1.17234e-16
2
7.39771e-17
2
6.03342e-17
2
7.82398e-17
2
-2.0886e-17
2
-1.32923e-16
2
-7.285e-17
2
7.07186e-17
2
-1.46136e-16
2
-4.07632e-16
2
-3.54395e-16
2
-4.44583e-16
2
-3.64464e-16
2
-1.08599e-16
2
2.60949e-18
2
1.2128e-17
2
1.44464e-16
2
-2.37619e-18
2
-2.14958e-18
2
1.09143e-17
2
1.62046e-16
2
1.15009e-16
2
1.22829e-16
2
-1.6161e-17
2
-1.71499e-16
2
-6.52366e-17
2
-9.12739e-17
2
-1.48201e-16
2
-1.4989e-16
2
-2.67793e-16
2
-3.66301e-16
2
-2.37574e-16
2
-3.46113e-16
2
-4.40583e-16
2
-2.29878e-16
2
-2.96196e-16
2
-2.69242e-16
2
-1.16775e-16
2
1.96141e-17
2
-1.59485e-16
2
-2.71989e-16
2
3.98875e-17
2
6.61742e-17
2
-9.55169e-17
2
2.81249e-17
2
-7.15829e-17
2
1.63466e-16
2
-7.0427e-18
2
1.03808e-16
2
2.80446e-18
2
-2.09345e-17
2
-6.09856e-17
2
-2.10779e-16
2
5.75331e-17
2
4.60228e-17
2
-8.18513e-17
2
-1.17363e-16
2
-2.07616e-16
2
4.02616e-17
2
-1.45288e-16
2
-1.7405e-16
2
-6.68416e-17
2
-4.85199e-17
2
-3.36122e-17
2
-1.29255e-16
2
-7.05888e-17
2
-4.55874e-17
2
5.21825e-18
2
2.75654e-17
2
4.21662e-17
2
-6.87636e-17
2
5.50584e-17
2
1.35137e-16
2
6.30643e-17
2
6.99162e-17
2
1.41424e-16
2
8.83242e-17
2
-3.65741e-17
2
5.69549e-17
2
1.16967e-16
2
7.5731e-17
2
-2.22763e-17
2
-4.7922e-17
2
2.48179e-18
2
2.18006e-17
2
5.62075e-17
2
1.07585e-17
2
-1.20642e-16
2
-6.81687e-17
2
-2.80719e-16
2
-2.80481e-16
2
-1.55299e-16
2
-1.21843e-16
2
6.74842e-17
2
9.24892e-17
2
1.92745e-17
2
2.38882e-16
2
8.12247e-17
2
-1.01598e-16
2
-2.54751e-17
2
1.70304e-16
2
2.18373e-16
2
-1.31847e-17
2
1.09282e-16
2
1.19133e-16
2
1.54519e-16
2
-9.58555e-17
2
-7.29022e-17
2
7.05187e-17
2
9.0287e-17
2
-1.17749e-16
2
-8.76542e-17
2
-9.75581e-17
2
-1.22492e-16
2
3.60413e-17
2
1.36562e-16
2
8.70623e-17
2
-3.60639e-17
2
-6.96871e-17
2
2.47272e-16
2
3.50199e-16
2
6.14692e-17
2
-3.15917e-17
2
2.11844e-16
2
5.70479e-16
2
4.04884e-16
2
3.18729e-16
2
1.39679e-16
2
2.11217e-16
2
9.75489e-17
2
7.21672e-17
2
1.91279e-16
2
1.58634e-16
2
7.79909e-17
2
8.50942e-17
2
1.23427e-16
2
1.01887e-16
2
1.50077e-16
2
1.59466e-16
2
1.95278e-16
2
2.26455e-16
2
1.60331e-16
1.20069e-16
2
-1.74409e-16
2
1.42511e-17
2
-7.07617e-17
2
-1.47727e-16
2
-2.86241e-17
2
4.42976e-17
2
1.76793e-16
2
2.47525e-16
2
1.93331e-16
2
2.42016e-16
2
9.13047e-17
2
1.34987e-16
2
1.6538e-16
2
1.60557e-16
2
1.90345e-16
2
1.02101e-16
2
1.86049e-16
2
3.8141e-16
2
3.66733e-16
2
3.34648e-16
2
2.64724e-16
2
2.08106e-16
2
8.71022e-17
2
2.17198e-16
2
1.19317e-16
2
6.44894e-18
2
-4.16314e-18
2
-8.38731e-18
2
1.00766e-16
2
6.68082e-17
2
2.2375e-17
2
-9.32425e-17
2
-1.61777e-16
2
-4.23242e-17
2
-1.79072e-16
2
-2.88441e-16
2
-3.50416e-16
2
-4.47905e-16
2
-4.08895e-16
2
-2.03432e-16
2
-9.83141e-17
2
-2.08939e-16
2
-6.92264e-17
2
-1.26584e-17
2
6.671e-17
2
7.86973e-17
2
1.81266e-16
2
1.3028e-16
2
2.05823e-16
2
3.46392e-17
2
9.42935e-17
2
1.56954e-16
2
6.94566e-17
2
-1.79347e-17
2
1.07468e-16
2
1.43114e-16
2
1.83605e-16
2
3.46105e-16
2
1.78877e-16
2
1.36707e-16
2
1.1281e-16
2
2.23965e-17
2
-2.65396e-17
2
5.01169e-17
2
-8.33463e-17
2
-7.39489e-17
2
-1.66916e-16
2
-4.59913e-16
2
-3.85383e-16
2
-3.5504e-16
2
-2.43998e-16
2
-7.17786e-17
2
-1.18397e-16
2
-7.01437e-17
2
-6.72091e-17
2
-8.63448e-17
2
-5.09262e-19
2
-8.16262e-17
2
-1.02192e-16
2
-6.20399e-17
2
1.61372e-17
2
-1.52552e-16
2
-1.99133e-16
2
-1.01556e-17
2
4.15929e-17
2
-8.21229e-17
2
-3.27486e-16
2
-9.06942e-17
2
-3.35015e-17
2
-1.44435e-16
2
-1.80743e-16
2
-1.68954e-16
2
-1.58743e-16
2
-4.67463e-17
2
-5.40619e-17
2
-1.27712e-16
2
-7.5282e-17
2
-1.2527e-16
2
1.09655e-16
2
8.6526e-17
2
9.45783e-17
2
7.54385e-17
2
-8.19061e-17
2
-1.00216e-16
2
6.14604e-18
2
-3.01526e-17
2
-3.13827e-17
2
1.02435e-16
2
5.46142e-17
2
2.07041e-16
2
7.23831e-17
2
-1.60298e-17
2
-1.70907e-16
2
-1.9844e-16
2
-1.5414e-16
2
-1.95633e-16
2
1.42488e-16
2
5.79133e-17
2
-3.07878e-16
2
-7.01235e-17
2
-9.04283e-18
2
-1.44561e-17
2
-5.88512e-17
2
-4.55653e-17
2
-2.41183e-17
2
-6.01708e-17
2
-5.10819e-18
2
-2.0501e-16
2
-2.11094e-16
2
-8.20854e-17
2
-1.47286e-16
2
4.31605e-17
2
2.22685e-16
2
2.14061e-16
2
2.43382e-16
2
1.14444e-16
2
9.30206e-17
2
-4.31251e-17
2
-3.57668e-17
2
6.06779e-18
2
9.29171e-17
2
5.745e-17
2
-5.19148e-17
2
-1.42603e-17
2
5.07377e-17
2
-3.40964e-16
2
-4.35483e-16
2
-2.08217e-16
2
-1.79561e-17
2
1.94526e-16
2
2.08784e-16
2
2.20337e-16
2
1.86032e-16
2
1.27622e-16
2
2.04754e-16
2
2.38261e-16
2
3.91739e-17
2
5.95863e-17
2
8.00754e-17
2
6.68153e-17
2
1.264e-16
2
-1.96444e-17
2
-2.00661e-16
2
-5.70274e-17
2
-9.85522e-17
2
-2.90405e-17
2
7.74561e-18
2
2.31244e-16
2
1.22276e-16
2
6.601e-17
2
2.23515e-16
2
1.86099e-16
2
1.76223e-16
2
9.03314e-17
2
-4.6954e-18
2
4.02597e-17
2
2.74114e-17
2
-8.18236e-17
2
1.79763e-16
2
2.16844e-16
2
2.47368e-16
2
9.9755e-17
2
3.0404e-16
2
2.22003e-16
2
3.2791e-16
2
2.33812e-16
2
2.22764e-16
2
1.82574e-16
2
2.96731e-17
2
-4.27072e-17
2
-1.88125e-16
2
-4.43805e-17
2
1.46789e-16
2
1.74633e-16
2
-5.79455e-17
2
5.52908e-17
2
3.63749e-17
2
9.7388e-17
2
3.24495e-16
3.66106e-16
2
-1.07996e-16
2
-2.18991e-16
2
-1.71887e-16
2
-7.65209e-17
2
1.9748e-17
2
2.18374e-17
2
-2.48235e-17
2
-6.37634e-17
2
3.41591e-17
2
5.30034e-17
2
7.23767e-18
2
6.23591e-18
2
2.21578e-17
2
6.9412e-17
2
1.51912e-16
2
5.56681e-17
2
8.5522e-18
2
2.50691e-16
2
3.14027e-16
2
2.51035e-16
2
1.52687e-16
2
1.42401e-16
2
8.53922e-17
2
1.15405e-16
2
-1.46219e-17
2
-4.69203e-17
2
7.76176e-17
2
-1.59219e-17
2
-8.25053e-17
2
1.98707e-16
2
2.55233e-16
2
-1.32815e-18
2
-1.59802e-16
2
-8.5608e-17
2
-1.94963e-16
2
-2.32108e-16
2
-2.96568e-16
2
-1.77887e-16
2
-1.67446e-16
2
-2.55702e-16
2
-1.78859e-16
2
5.71342e-17
2
1.78024e-17
2
2.39535e-16
2
1.94704e-16
2
1.98136e-16
2
2.33855e-16
2
2.33689e-16
2
1.73354e-16
2
1.00232e-16
2
2.5288e-17
2
2.05797e-16
2
5.26107e-17
2
-1.03484e-16
2
-2.13288e-16
2
-5.64889e-17
2
1.24311e-16
2
3.41613e-16
2
2.59564e-17
2
1.5289e-16
2
2.05513e-16
2
1.18896e-16
2
5.18559e-17
2
-3.65518e-17
2
1.90743e-17
2
6.99031e-17
2
-1.04911e-16
2
2.97701e-17
2
-2.30975e-16
2
-2.99209e-16
2
-3.10549e-16
2
-3.29673e-16
2
-3.0593e-16
2
-3.20399e-16
2
-2.00554e-16
2
-2.12294e-16
2
-2.00708e-16
2
-3.08838e-16
2
-2.75783e-16
2
-2.506e-16
2
-1.66848e-16
2
-1.76402e-16
2
6.78449e-17
2
1.52792e-17
2
1.06826e-16
2
1.26568e-16
2
4.79242e-17
2
4.46133e-17
2
-8.6571e-17
2
-3.49411e-17
2
4.15771e-17
2
-9.98987e-17
2
1.38592e-18
2
-5.21202e-17
2
6.24328e-17
2
1.14144e-16
2
1.5403e-16
2
2.02723e-16
2
8.28798e-17
2
-3.95874e-18
2
1.86878e-16
2
1.79187e-16
2
6.06603e-17
2
-1.37554e-16
2
4.95022e-17
2
7.78062e-17
2
2.79801e-17
2
-1.98378e-16
2
-1.17914e-16
2
-8.16771e-17
2
-8.25322e-17
2
-7.63603e-17
2
-1.34871e-17
2
-1.71513e-17
2
-4.04227e-17
2
1.03105e-16
2
5.97534e-17
2
1.73849e-16
2
1.93393e-16
2
1.3971e-16
2
1.41867e-16
2
1.13242e-16
2
-3.99868e-17
2
1.3864e-17
2
-7.52652e-19
2
-1.14414e-16
2
-3.00978e-17
2
4.36067e-17
2
-2.87722e-17
2
-3.88072e-17
2
1.28247e-16
2
-7.48751e-17
2
5.24434e-17
2
2.50406e-16
2
2.31782e-16
2
1.58545e-17
2
6.05782e-17
2
3.9886e-17
2
-8.17656e-17
2
1.98981e-17
2
-2.03342e-17
2
-4.90465e-17
2
-1.12711e-17
2
-6.61266e-17
2
-2.39222e-16
2
-5.07132e-17
2
-4.02814e-17
2
-8.94092e-17
2
4.68793e-18
2
1.27481e-16
2
2.1847e-16
2
2.75361e-16
2
2.61101e-16
2
2.50424e-16
2
1.62568e-16
2
1.21161e-16
2
9.13872e-17
2
-1.41726e-16
2
-1.07079e-16
2
-4.99302e-17
2
-2.16971e-16
2
-1.45285e-16
2
2.85197e-17
2
1.22364e-16
2
9.88198e-17
2
2.05386e-16
2
9.05114e-17
2
-6.09823e-17
2
1.4236e-16
2
3.68593e-16
2
2.73622e-16
2
2.67978e-16
2
3.46037e-16
2
3.8382e-16
2
1.07377e-16
2
-1.1289e-17
2
9.97015e-17
2
1.94027e-17
2
7.36222e-17
2
4.23396e-17
2
-4.61925e-17
2
3.27037e-17
2
6.0448e-17
2
2.91718e-17
2
1.21847e-16
2
1.296e-16
2
-5.65314e-17
2
3.18147e-18
2
-1.70974e-16
2
-6.49213e-17
2
2.11761e-16
2
8.98076e-17
2
-3.44511e-17
2
1.33577e-16
2
9.2254e-17
2
-7.08993e-17
2
-4.84321e-17
2
-6.34753e-17
2
-1.61132e-16
3.93271e-17
2
-2.05022e-17
2
-5.9752e-17
2
-2.00848e-17
2
-9.58086e-18
2
6.43649e-17
2
4.93374e-17
2
5.73259e-17
2
7.12541e-17
2
1.3039e-16
2
6.96832e-17
2
7.98213e-17
2
8.18678e-17
2
4.27791e-17
2
9.9159e-17
2
-9.90406e-17
2
-3.85743e-17
2
4.89319e-17
2
-9.15959e-17
2
-1.15881e-16
2
1.57375e-16
2
-2.73645e-17
2
1.05233e-16
2
-1.81498e-17
2
1.41932e-16
2
9.77166e-17
2
8.09658e-17
2
1.8828e-16
2
2.04144e-16
2
9.65033e-17
2
2.09718e-18
2
1.85298e-16
2
1.72596e-16
2
-8.24823e-17
2
-3.66565e-16
2
-2.60939e-16
2
-1.42847e-16
2
5.30332e-17
2
-1.73819e-16
2
-1.87855e-16
2
2.53469e-17
2
3.89027e-17
2
1.50796e-16
2
2.66026e-16
2
2.91234e-16
2
2.46371e-16
2
2.71625e-16
2
3.02321e-16
2
3.38933e-16
2
9.08175e-17
2
1.09408e-16
2
1.67995e-16
2
1.17348e-16
2
-6.41978e-17
2
1.03401e-16
2
1.67303e-18
2
6.27835e-17
2
-2.30126e-18
2
-1.07634e-16
2
2.17862e-16
2
1.5712e-16
2
3.27413e-16
2
2.05406e-16
2
2.40248e-16
2
2.16681e-16
2
1.47516e-16
2
2.76092e-17
2
1.52507e-16
2
4.86709e-17
2
-1.9376e-16
2
-2.07484e-16
2
-2.94052e-16
2
-5.30684e-16
2
-3.66424e-16
2
-2.51973e-16
2
-2.91907e-16
2
-3.45785e-16
2
-2.04397e-16
2
-1.02945e-16
2
-2.21004e-16
2
-3.25283e-16
2
-1.92741e-16
2
1.25441e-16
2
-3.1096e-17
2
3.92906e-17
2
-7.30756e-17
2
-3.04057e-16
2
1.07988e-16
2
-1.44603e-17
2
9.62326e-17
2
2.62104e-17
2
6.57666e-17
2
1.08546e-16
2
2.45416e-16
2
1.148e-16
2
1.27458e-16
2
2.4419e-16
2
1.5725e-16
2
2.63317e-17
2
-1.48111e-16
2
-7.63931e-17
2
-1.23586e-16
2
-1.59157e-16
2
6.71035e-17
2
5.27425e-17
2
1.30522e-17
2
1.13734e-16
2
8.93296e-17
2
-7.45675e-17
2
9.51278e-17
2
1.83226e-17
2
1.55765e-16
2
2.43645e-16
2
1.41988e-16
2
5.40403e-17
2
-9.39684e-17
2
-1.82821e-16
2
-2.60058e-17
2
6.25659e-17
2
3.32581e-16
2
2.29449e-16
2
2.53901e-16
2
1.67717e-16
2
9.29394e-17
2
6.66807e-17
2
6.67244e-17
2
7.84341e-17
2
-1.86997e-17
2
7.24098e-18
2
1.37959e-16
2
3.44695e-16
2
1.52415e-16
2
1.71825e-16
2
2.21708e-16
2
3.51545e-16
2
3.23221e-16
2
4.71299e-16
2
1.05011e-16
2
-1.68136e-16
2
-2.02384e-17
2
-6.68256e-17
2
-9.31934e-17
2
2.53689e-17
2
1.67308e-17
2
-5.02367e-18
2
-2.17431e-17
2
-6.47747e-17
2
1.47322e-17
2
-1.02276e-17
2
-7.23152e-18
2
4.20168e-17
2
1.96515e-16
2
2.73335e-16
2
1.71094e-16
2
2.79715e-16
2
2.98062e-16
2
2.57723e-16
2
1.35443e-16
2
1.04736e-16
2
3.20236e-17
2
1.1988e-19
2
9.72378e-18
2
1.21369e-17
2
-7.77748e-17
2
7.09235e-17
2
1.92228e-16
2
1.3189e-16
2
2.37232e-16
2
2.68599e-16
2
2.71881e-16
2
1.82168e-16
2
3.45915e-16
2
3.28287e-16
2
1.87688e-16
2
-2.94565e-17
2
7.53675e-17
2
9.69748e-17
2
1.95096e-17
2
-1.81139e-17
2
9.29468e-17
2
-1.11366e-16
2
-1.23593e-16
2
-5.52449e-17
2
-1.32139e-16
2
-2.28359e-16
2
-8.95787e-17
2
9.65486e-18
2
1.55958e-16
2
-1.12874e-17
2
1.51876e-16
2
6.34782e-17
2
1.73981e-17
2
-5.57981e-17
2
-7.02441e-17
2
-5.38682e-17
2
-1.83056e-16
2
-9.07731e-17
2
-1.41484e-17
2
-5.49195e-17
2
3.49887e-17
3.03696e-17
2
4.42397e-17
2
-1.40477e-17
2
-1.15729e-16
2
-3.02438e-17
2
1.08048e-16
2
2.31572e-16
2
3.5986e-17
2
1.04143e-16
2
8.05033e-18
2
1.29527e-16
2
6.55649e-17
2
-6.15948e-17
2
-7.35755e-17
2
-2.05015e-16
2
-1.08293e-16
2
-7.19308e-17
2
-4.86365e-17
2
-8.5471e-17
2
7.00862e-17
2
8.92578e-17
2
2.69232e-16
2
1.55135e-16
2
2.43727e-16
2
1.5503e-16
2
9.84077e-17
2
6.91675e-17
2
-2.97373e-17
2
6.73127e-17
2
2.17733e-16
2
-6.63079e-19
2
-1.25096e-16
2
5.70927e-17
2
-1.03066e-17
2
-1.06636e-16
2
-1.4254e-16
2
-2.97141e-18
2
-1.12103e-17
2
1.11731e-16
2
6.89728e-17
2
4.86107e-17
2
7.22499e-17
2
1.20881e-16
2
1.08609e-16
2
-5.76584e-17
2
1.47554e-16
2
2.09196e-16
2
2.23384e-16
2
1.10049e-16
2
8.50456e-17
2
3.8982e-17
2
-1.70258e-17
2
-2.55142e-16
2
-2.8352e-17
2
1.73801e-16
2
4.243e-16
2
2.1436e-16
2
2.9745e-16
2
1.85257e-16
2
2.14695e-16
2
1.86093e-16
2
9.39956e-17
2
3.64558e-16
2
3.53671e-16
2
4.13321e-16
2
2.66653e-16
2
1.8342e-16
2
1.59699e-16
2
1.23614e-16
2
3.56429e-17
2
-2.93856e-17
2
-9.60278e-17
2
-2.09303e-16
2
-3.25952e-16
2
-3.74256e-16
2
-3.32271e-16
2
-2.02023e-16
2
-2.0464e-16
2
-1.65041e-16
2
-1.67711e-16
2
-1.36026e-16
2
-2.83537e-16
2
-2.37781e-16
2
-1.99035e-16
2
-1.75486e-16
2
-3.46337e-17
2
1.52738e-16
2
5.69885e-17
2
1.86998e-16
2
-2.41704e-18
2
-1.86644e-17
2
1.34473e-16
2
1.9661e-16
2
1.23781e-16
2
-2.14173e-18
2
1.72028e-17
2
3.20377e-17
2
6.4177e-17
2
1.62742e-16
2
8.62003e-17
2
-1.24996e-16
2
-8.03059e-17
2
4.73235e-17
2
1.86426e-16
2
1.19654e-16
2
1.25945e-16
2
1.74031e-16
2
2.52962e-16
2
1.29819e-16
2
5.85123e-17
2
3.42536e-16
2
8.48577e-17
2
-6.27062e-17
2
-6.45617e-17
2
-1.31581e-16
2
-5.16231e-17
2
-1.11335e-16
2
-3.37607e-16
2
-4.28648e-17
2
4.29253e-17
2
1.67966e-16
2
2.60623e-17
2
1.59151e-16
2
1.71732e-16
2
5.53626e-17
2
9.74217e-17
2
3.25822e-16
2
2.02166e-16
2
2.54933e-16
2
1.44258e-16
2
1.22015e-16
2
2.86886e-16
2
1.93766e-16
2
9.48671e-17
2
3.50201e-17
2
1.27065e-16
2
7.3176e-17
2
1.06158e-16
2
2.08605e-16
2
8.37373e-17
2
2.78337e-17
2
2.50765e-17
2
5.02543e-17
2
-4.91528e-17
2
-3.07765e-17
2
1.91086e-16
2
2.30283e-16
2
1.80876e-16
2
1.44468e-16
2
8.20841e-17
2
1.97502e-17
2
-9.747e-17
2
-2.43014e-17
2
2.29248e-16
2
2.23037e-16
2
3.33808e-16
2
3.50184e-16
2
3.70278e-16
2
2.43329e-16
2
1.53696e-16
2
5.49492e-17
2
2.34125e-16
2
1.68398e-16
2
2.58425e-17
2
1.19498e-16
2
6.6143e-17
2
-4.69964e-17
2
1.14182e-16
2
2.97772e-16
2
2.18824e-16
2
2.26245e-16
2
1.81796e-16
2
1.73146e-16
2
1.07282e-16
2
1.12254e-16
2
3.60637e-16
2
5.56948e-17
2
-1.35033e-16
2
1.94708e-16
2
1.96273e-17
2
1.71676e-16
2
1.55753e-16
2
-1.80486e-16
2
-4.9351e-17
2
-4.68197e-17
2
-9.42489e-17
2
-1.11072e-17
2
-5.02162e-17
2
8.55783e-17
2
-1.40074e-16
2
-1.22783e-16
2
2.71312e-17
2
-6.62483e-17
2
4.14455e-17
2
-6.66942e-17
2
1.03909e-16
2
-3.68853e-18
2
-4.29881e-17
2
9.70138e-17
2
5.52595e-17
-5.32887e-17
2
1.16298e-16
2
4.67234e-17
2
-2.01309e-16
2
-5.28139e-17
2
-2.24468e-16
2
-1.42948e-16
2
3.06672e-17
2
1.12548e-16
2
9.31246e-17
2
-5.60364e-17
2
-6.33408e-17
2
-2.21472e-16
2
-2.30152e-16
2
-8.94784e-17
2
-1.44722e-18
2
2.54069e-17
2
-4.39138e-17
2
5.96581e-17
2
2.53595e-16
2
1.82211e-16
2
2.71941e-16
2
2.98406e-16
2
9.8024e-17
2
-2.14771e-17
2
7.36189e-17
2
1.88675e-16
2
1.51763e-16
2
8.81096e-17
2
-1.35657e-17
2
7.00635e-18
2
-1.18449e-16
2
-3.34682e-17
2
-1.98563e-16
2
-1.90777e-16
2
3.8495e-17
2
4.73494e-17
2
-8.51899e-17
2
-2.08283e-16
2
-9.46322e-17
2
4.62532e-17
2
1.75018e-16
2
2.20956e-16
2
1.85515e-16
2
1.7346e-16
2
1.9929e-16
2
1.27395e-16
2
1.34087e-16
2
7.79116e-17
2
3.45666e-17
2
-2.65292e-17
2
-8.54813e-17
2
-2.63499e-16
2
7.31479e-17
2
1.69976e-16
2
2.9773e-16
2
3.43426e-16
2
1.60805e-16
2
1.66212e-16
2
1.56022e-16
2
1.80167e-16
2
3.32774e-16
2
2.36262e-16
2
2.31837e-16
2
2.26824e-16
2
1.86822e-16
2
2.06708e-16
2
1.02086e-16
2
1.66667e-16
2
1.60751e-16
2
1.21741e-16
2
1.26136e-16
2
1.06914e-16
2
-3.23985e-16
2
-4.10789e-16
2
-1.52604e-16
2
-1.99556e-16
2
-2.69216e-16
2
-2.12047e-16
2
-1.45346e-16
2
-1.73186e-16
2
-4.49017e-16
2
-4.96462e-16
2
-3.22624e-16
2
-9.39213e-17
2
-4.22945e-17
2
-1.20511e-17
2
9.59191e-17
2
1.44466e-16
2
1.51003e-16
2
2.38787e-16
2
2.72416e-16
2
3.243e-16
2
2.93448e-16
2
1.19195e-16
2
2.65014e-17
2
-1.52241e-16
2
-3.81942e-17
2
-1.07566e-17
2
-4.0566e-17
2
8.4807e-17
2
-4.71055e-17
2
2.54732e-16
2
4.75449e-16
2
5.37919e-16
2
2.6921e-16
2
2.12844e-16
2
1.58523e-16
2
3.51473e-16
2
1.77456e-16
2
-4.78659e-17
2
-3.90219e-17
2
-2.31495e-17
2
-1.1477e-16
2
-2.90348e-16
2
-1.70453e-16
2
-2.3742e-16
2
-1.75042e-16
2
-1.82608e-16
2
-7.14802e-17
2
1.41218e-16
2
1.51239e-16
2
-3.05635e-19
2
4.00484e-17
2
-1.01322e-16
2
-5.45734e-17
2
2.87842e-17
2
1.84392e-16
2
1.95561e-16
2
3.06411e-17
2
1.19154e-16
2
1.81767e-16
2
5.09571e-16
2
2.80328e-16
2
1.02496e-17
2
8.89403e-17
2
8.47132e-17
2
8.35862e-17
2
6.93848e-17
2
1.38424e-16
2
1.20344e-16
2
1.18555e-16
2
9.98925e-17
2
1.55149e-16
2
9.86998e-17
2
4.07618e-17
2
1.21193e-16
2
2.30705e-16
2
2.12905e-16
2
2.18741e-16
2
2.13077e-16
2
3.31089e-18
2
-3.50605e-18
2
1.0743e-16
2
4.03816e-16
2
3.63342e-16
2
3.23365e-16
2
2.24903e-16
2
2.47845e-16
2
2.40324e-16
2
2.66405e-16
2
1.33928e-16
2
1.84395e-16
2
2.32821e-16
2
2.22914e-16
2
3.28785e-16
2
3.47751e-16
2
-1.58871e-17
2
1.61514e-16
2
2.55142e-17
2
1.91119e-16
2
2.76091e-16
2
6.94705e-17
2
-9.11695e-17
2
-8.62099e-17
2
-3.13866e-17
2
-2.99417e-17
2
1.05448e-17
2
-4.88506e-17
2
4.45397e-17
2
-9.48395e-17
2
-1.52305e-16
2
-6.04969e-17
2
-2.25731e-17
2
-3.95272e-17
2
-1.7245e-17
2
-1.01728e-16
2
-9.84756e-17
2
-1.76275e-16
2
-1.00606e-16
2
-1.8928e-16
2
-3.57637e-16
2
-3.23121e-17
2
1.16337e-16
2
3.63601e-17
2
-4.52946e-17
2
1.3916e-17
2
-5.84855e-17
2
-2.30568e-16
2
-1.64745e-16
-1.06914e-16
2
-2.7718e-17
2
-1.13909e-16
2
-1.19139e-16
2
-2.92357e-16
2
-2.80102e-16
2
-2.97283e-16
2
-2.01977e-16
2
-2.25252e-16
2
-8.41929e-17
2
1.00958e-16
2
-7.80349e-17
2
-1.49703e-16
2
-1.53911e-16
2
-7.72924e-17
2
7.44775e-18
2
9.88954e-17
2
5.12664e-17
2
1.00868e-16
2
5.38363e-17
2
-5.70888e-17
2
2.39953e-16
2
2.09858e-16
2
3.50775e-16
2
1.07908e-16
2
1.81222e-16
2
1.86995e-16
2
7.8438e-17
2
-3.48792e-18
2
-1.01353e-16
2
-9.88899e-17
2
-1.3461e-16
2
-1.21484e-16
2
-3.80989e-17
2
2.7666e-17
2
-1.94469e-16
2
-1.84845e-16
2
-1.5703e-16
2
1.35588e-16
2
1.30788e-16
2
2.08331e-17
2
1.70084e-16
2
2.04963e-16
2
1.99444e-16
2
3.66495e-17
2
-1.70328e-16
2
-5.57401e-17
2
4.01312e-17
2
-1.74154e-17
2
-3.41755e-17
2
-5.13293e-17
2
-3.26952e-17
2
4.05086e-17
2
-4.41987e-17
2
1.2794e-16
2
2.62336e-16
2
2.20297e-16
2
1.87409e-16
2
1.72154e-16
2
1.25663e-16
2
1.6977e-16
2
9.45405e-17
2
1.20167e-16
2
1.38871e-16
2
1.17541e-16
2
5.17671e-17
2
-1.37288e-16
2
2.18892e-16
2
2.08082e-16
2
2.61103e-16
2
1.94067e-16
2
-9.51131e-17
2
-4.80367e-17
2
-1.35079e-16
2
-2.16522e-16
2
-2.98889e-16
2
-1.84596e-17
2
2.40332e-16
2
-1.98473e-17
2
-1.38186e-16
2
-5.68648e-17
2
6.47569e-17
2
4.12358e-17
2
3.77519e-17
2
-1.47189e-16
2
-1.07505e-16
2
1.98995e-17
2
-6.22258e-17
2
-1.143e-17
2
1.43928e-16
2
2.8608e-16
2
2.54218e-16
2
1.52143e-16
2
7.19957e-17
2
3.08627e-16
2
1.30539e-16
2
2.37977e-17
2
-5.49092e-18
2
8.81465e-17
2
-3.22156e-17
2
1.00633e-16
2
1.76628e-16
2
1.59112e-16
2
8.14817e-17
2
2.52603e-17
2
3.82852e-16
2
3.62243e-16
2
3.09048e-16
2
1.54825e-16
2
2.80562e-17
2
-6.99173e-17
2
-9.52756e-17
2
-2.46837e-16
2
-3.9443e-16
2
-1.90559e-16
2
-5.21731e-17
2
-5.69424e-18
2
-2.44701e-16
2
-1.88041e-16
2
-5.80615e-17
2
5.6585e-17
2
1.33986e-16
2
-1.12666e-16
2
-2.1134e-16
2
3.77613e-17
2
1.90185e-16
2
9.63516e-17
2
-1.30968e-16
2
-1.24385e-16
2
9.94047e-17
2
1.77927e-16
2
1.96238e-16
2
6.11711e-19
2
1.02496e-16
2
7.75771e-17
2
1.22072e-16
2
1.47647e-17
2
1.18633e-17
2
2.42416e-16
2
1.87246e-16
2
1.94634e-16
2
2.28776e-16
2
7.5107e-17
2
3.06727e-16
2
2.23331e-16
2
1.1863e-16
2
2.96057e-16
2
2.52437e-16
2
2.96344e-16
2
2.91874e-16
2
3.16262e-16
2
4.49815e-17
2
-7.49822e-17
2
6.23545e-17
2
3.46577e-17
2
2.16799e-16
2
1.79123e-16
2
2.24326e-16
2
3.01347e-16
2
2.28975e-16
2
1.3099e-16
2
1.41252e-16
2
1.01368e-16
2
3.08135e-17
2
2.24676e-17
2
1.68949e-16
2
1.22572e-16
2
1.8203e-16
2
-8.18708e-17
2
4.48234e-19
2
-1.10159e-16
2
-2.0197e-16
2
-1.01816e-16
2
-3.54055e-17
2
1.14416e-17
2
-7.56643e-17
2
6.76876e-17
2
1.10667e-16
2
-9.17612e-17
2
-1.9461e-16
2
-7.08511e-17
2
-1.95213e-16
2
-2.40083e-16
2
-2.84125e-16
2
-2.01917e-17
2
-2.54008e-16
2
-2.45786e-16
2
-2.94822e-16
2
-3.99323e-16
2
-2.65381e-16
2
-1.84031e-16
2
-3.6029e-16
2
-2.73512e-16
2
-7.6637e-17
2
6.20249e-17
2
1.96156e-16
2
-2.9386e-17
2
-9.99036e-17
2
-1.34575e-16
2
-2.82379e-16
-2.53597e-16
2
7.64582e-17
2
1.25801e-16
2
1.60841e-16
2
-8.67551e-17
2
1.18144e-16
2
-7.70505e-17
2
-2.36225e-16
2
-2.86845e-16
2
-2.50122e-16
2
-2.06081e-16
2
-2.98187e-16
2
-2.61327e-16
2
-1.86385e-16
2
-1.24015e-16
2
-9.49897e-17
2
-2.22565e-16
2
-9.18825e-17
2
-1.18459e-16
2
-6.26941e-17
2
2.0293e-16
2
8.30047e-17
2
-1.66296e-17
2
1.00017e-16
2
-1.0325e-17
2
6.00452e-17
2
-7.58978e-17
2
-9.79073e-18
2
-3.70803e-17
2
-1.67745e-16
2
-1.83643e-17
2
-1.15206e-16
2
-2.69635e-16
2
6.38263e-17
2
2.36678e-17
2
-8.72808e-17
2
-8.9063e-17
2
2.82122e-16
2
2.50918e-16
2
4.17151e-16
2
5.74152e-16
2
3.91495e-16
2
3.00093e-16
2
2.05481e-16
2
-1.42732e-17
2
-7.40622e-17
2
-2.26097e-16
2
-3.17331e-16
2
-6.86725e-17
2
-8.36674e-17
2
-7.71953e-17
2
1.46538e-17
2
5.52058e-17
2
1.82949e-17
2
-1.99444e-16
2
-2.32853e-16
2
-1.3309e-16
2
-9.60851e-17
2
-2.35334e-17
2
1.67197e-16
2
-4.43882e-17
2
-9.43442e-17
2
1.14671e-16
2
8.51382e-17
2
8.66213e-17
2
5.16821e-17
2
2.71193e-16
2
1.60103e-16
2
1.08458e-16
2
-1.54496e-17
2
-2.35766e-17
2
1.68563e-16
2
-5.87955e-17
2
8.00424e-17
2
-7.01324e-17
2
-9.91742e-18
2
9.67725e-17
2
9.64777e-17
2
2.21358e-16
2
3.00171e-16
2
2.00016e-16
2
1.37424e-16
2
1.85107e-16
2
1.68527e-16
2
1.36887e-16
2
1.36358e-16
2
1.39571e-16
2
7.71566e-17
2
1.80599e-16
2
1.04082e-16
2
2.16954e-16
2
1.88328e-16
2
1.63677e-16
2
9.3163e-17
2
2.08129e-16
2
-1.83567e-17
2
-2.07668e-16
2
-1.19191e-16
2
-2.09359e-16
2
3.67153e-17
2
1.21169e-16
2
1.22118e-16
2
1.15956e-16
2
2.06206e-16
2
8.13713e-17
2
3.93707e-17
2
1.54999e-16
2
1.81843e-16
2
2.47604e-17
2
-5.10253e-17
2
-3.23666e-17
2
7.51263e-17
2
3.63276e-17
2
3.75624e-17
2
1.68792e-16
2
-1.91511e-16
2
-2.35268e-16
2
-3.73122e-16
2
-4.91302e-16
2
-3.20851e-16
2
-2.98893e-16
2
-3.06e-16
2
-1.08469e-16
2
-7.6172e-17
2
-2.32774e-19
2
-1.63415e-16
2
-1.55028e-16
2
-1.18892e-16
2
-1.04905e-16
2
-1.5568e-16
2
-1.57437e-16
2
4.46227e-18
2
2.09303e-16
2
1.80895e-16
2
1.39018e-16
2
-1.02355e-16
2
1.6342e-16
2
9.477e-18
2
3.81445e-17
2
-3.7225e-18
2
7.92452e-17
2
-4.59154e-18
2
1.15721e-16
2
9.03268e-17
2
3.13389e-16
2
2.85696e-16
2
1.44679e-16
2
1.88444e-16
2
2.25864e-16
2
2.3522e-16
2
-1.15448e-16
2
2.92056e-17
2
4.48219e-17
2
2.72014e-17
2
5.1268e-18
2
-1.51266e-16
2
-9.47332e-17
2
1.70539e-16
2
2.63316e-16
2
2.80433e-16
2
3.89469e-16
2
2.20602e-16
2
7.34428e-17
2
1.96273e-16
2
-4.76371e-17
2
-8.80429e-17
2
-8.55775e-17
2
-8.66067e-17
2
-1.15989e-16
2
-7.78802e-17
2
-1.3035e-16
2
-1.77639e-16
2
-1.13639e-16
2
-2.5992e-16
2
-1.31091e-16
2
-3.05698e-16
2
-2.10043e-16
2
-7.1471e-17
2
1.01281e-16
2
-2.28155e-16
2
-1.60297e-16
2
-2.54438e-16
2
-2.42766e-16
2
-1.9683e-16
2
-2.15126e-16
2
-5.77443e-17
2
-1.36438e-16
2
-2.34969e-16
2
-2.76328e-16
2
-2.43085e-16
2
-2.21253e-16
2
-7.10316e-17
2
-8.44893e-17
2
-1.19728e-16
2
-2.19315e-16
2
-1.77951e-16
2
-1.47025e-16
2
-6.29911e-17
2
-1.91828e-17
2
-4.85088e-17
-2.07453e-16
2
9.37574e-17
2
1.18864e-16
2
1.24707e-16
2
1.8211e-16
2
-6.53662e-17
2
-2.28827e-16
2
-3.33858e-16
2
-3.03695e-16
2
-2.45597e-16
2
-4.65008e-16
2
-3.13395e-16
2
-5.59877e-17
2
-3.62102e-17
2
-8.77083e-17
2
-1.37484e-16
2
-2.40333e-16
2
-1.63211e-16
2
-3.02294e-17
2
-4.97838e-18
2
-6.80627e-17
2
-2.79046e-16
2
-1.83819e-16
2
-1.2629e-16
2
-9.52113e-17
2
-1.23877e-16
2
-2.85556e-17
2
6.59321e-17
2
4.2456e-17
2
-2.95999e-17
2
-1.41998e-17
2
7.18711e-17
2
2.13033e-17
2
9.25307e-17
2
4.93341e-17
2
-8.34913e-17
2
6.99177e-17
2
2.15044e-16
2
1.29915e-16
2
2.25424e-16
2
3.87196e-16
2
2.55119e-16
2
2.22026e-16
2
1.7105e-16
2
7.97172e-17
2
-2.47465e-18
2
-7.72301e-17
2
-1.38978e-16
2
-3.02344e-16
2
-1.6816e-16
2
-1.88782e-16
2
-2.98201e-16
2
-2.29986e-16
2
-1.29424e-16
2
-1.56297e-16
2
-1.94109e-16
2
-2.37615e-16
2
-2.26592e-16
2
-1.86376e-16
2
-1.83492e-16
2
-3.55101e-17
2
-1.87798e-16
2
-1.64588e-16
2
-7.55061e-17
2
4.42792e-17
2
1.09923e-16
2
4.09861e-17
2
8.21774e-17
2
8.41933e-17
2
6.90251e-17
2
2.16059e-17
2
3.29341e-17
2
8.9689e-17
2
1.68138e-16
2
2.89165e-16
2
1.64957e-16
2
2.58162e-16
2
3.23462e-16
2
1.38917e-16
2
2.69977e-17
2
3.14517e-16
2
3.72629e-16
2
2.66793e-16
2
1.88137e-16
2
3.01997e-16
2
2.48577e-16
2
1.87288e-16
2
4.91648e-17
2
1.32692e-16
2
2.2438e-16
2
1.68748e-16
2
4.56091e-17
2
-1.63506e-16
2
5.89742e-17
2
-2.18779e-17
2
4.47742e-17
2
8.56619e-17
2
-9.14206e-17
2
2.67619e-17
2
1.79181e-16
2
1.20684e-16
2
-2.8835e-17
2
-7.61087e-17
2
-3.16725e-16
2
-3.65159e-19
2
-1.19421e-16
2
1.54325e-17
2
-1.54356e-16
2
-1.10211e-16
2
-9.8903e-17
2
3.16826e-16
2
3.1108e-16
2
1.61057e-16
2
2.23556e-16
2
1.04366e-16
2
1.77434e-16
2
4.59755e-17
2
-1.0378e-16
2
-2.36352e-16
2
-2.07911e-16
2
-3.04572e-16
2
-1.76532e-16
2
-6.62109e-17
2
-1.06917e-16
2
-1.36008e-16
2
-2.66884e-17
2
-4.19021e-17
2
-3.87955e-17
2
4.27483e-17
2
-6.48636e-17
2
-1.83268e-16
2
-1.11517e-17
2
-6.4309e-17
2
1.12227e-16
2
2.24311e-16
2
2.71614e-16
2
7.35178e-17
2
2.14023e-16
2
1.16054e-17
2
6.74575e-18
2
-8.64872e-17
2
-1.0689e-16
2
7.81379e-17
2
1.82466e-16
2
2.82686e-16
2
2.57944e-16
2
3.06866e-16
2
2.16088e-16
2
2.09723e-16
2
-1.91797e-17
2
-2.2509e-17
2
1.8087e-16
2
2.16453e-16
2
2.51258e-17
2
-2.02706e-16
2
-1.44109e-16
2
2.13582e-17
2
2.42405e-17
2
-4.94049e-17
2
4.99889e-17
2
-8.26933e-17
2
-2.13093e-16
2
1.18596e-16
2
1.09114e-17
2
-1.45464e-16
2
-2.03674e-16
2
-2.3502e-16
2
-1.69801e-16
2
-7.83222e-17
2
-1.17572e-16
2
-2.08049e-16
2
-2.21843e-16
2
-3.11788e-16
2
-8.52309e-17
2
-1.95403e-16
2
-1.00562e-16
2
-9.73025e-17
2
-1.40505e-16
2
-2.15975e-16
2
-9.0634e-17
2
-3.19641e-16
2
-2.38586e-16
2
-1.17014e-16
2
-3.41239e-16
2
-4.60496e-16
2
-2.95348e-16
2
-2.01088e-16
2
-1.84221e-16
2
-2.40709e-16
2
-1.41569e-16
2
1.66875e-16
2
6.44341e-17
2
2.83545e-17
2
1.92389e-17
2
-9.08447e-17
2
-3.58842e-16
2
-4.49332e-17
2
4.63986e-17
2
1.07343e-16
2
-1.3782e-16
-4.11254e-16
2
7.39689e-17
2
1.54631e-16
2
1.91285e-16
2
1.05139e-16
2
-6.12585e-17
2
-9.0185e-17
2
-1.29217e-17
2
-1.29434e-16
2
-1.9198e-16
2
-3.19135e-16
2
-2.44007e-16
2
-1.30651e-16
2
-1.83233e-16
2
-1.16816e-16
2
-1.20421e-16
2
-1.77041e-16
2
-3.23443e-16
2
-2.95988e-16
2
-2.82353e-16
2
-3.43253e-16
2
-2.95038e-16
2
-2.73287e-16
2
-9.16932e-17
2
4.86608e-17
2
7.34909e-17
2
7.1993e-17
2
-9.79892e-17
2
1.74528e-16
2
2.28414e-16
2
1.16372e-17
2
-4.36115e-17
2
4.00567e-17
2
2.39511e-16
2
2.68332e-16
2
1.85076e-16
2
1.30146e-16
2
1.40915e-16
2
2.43803e-16
2
1.22964e-16
2
3.9333e-17
2
1.55646e-16
2
1.40727e-16
2
6.35167e-17
2
2.68497e-17
2
1.68112e-17
2
-1.38786e-18
2
6.2374e-17
2
-7.86221e-17
2
-1.37871e-16
2
-1.90394e-16
2
-2.50774e-16
2
-3.56222e-16
2
-4.59366e-16
2
-4.53159e-16
2
-5.24759e-16
2
-3.34806e-16
2
-2.62103e-16
2
-2.24721e-16
2
-1.54191e-16
2
-1.63857e-16
2
-1.02605e-16
2
-1.29982e-16
2
-2.48427e-16
2
-3.6249e-16
2
-1.61729e-16
2
1.19958e-16
2
1.20328e-16
2
1.51469e-16
2
2.8715e-16
2
1.04255e-16
2
-6.12557e-17
2
2.0847e-16
2
1.67509e-16
2
2.29467e-17
2
2.0112e-16
2
1.02722e-16
2
6.37665e-17
2
8.50084e-17
2
3.12975e-16
2
1.57463e-16
2
1.96228e-16
2
1.67795e-16
2
3.5286e-16
2
7.86598e-17
2
1.07554e-16
2
1.33088e-16
2
1.46014e-16
2
6.53207e-17
2
4.54266e-17
2
3.42938e-17
2
-1.36082e-16
2
-3.82512e-17
2
-6.69258e-17
2
5.73668e-17
2
4.52097e-17
2
8.97543e-17
2
4.03744e-17
2
1.78412e-16
2
-3.67299e-18
2
-1.97873e-17
2
1.09244e-17
2
-5.30698e-17
2
-4.4343e-17
2
-1.01288e-16
2
-6.66889e-17
2
-2.23755e-16
2
-1.84275e-16
2
-1.17749e-16
2
1.7486e-17
2
5.49531e-17
2
2.17491e-17
2
-1.08546e-16
2
-6.52015e-17
2
4.45992e-17
2
7.42752e-17
2
9.1116e-17
2
2.8971e-16
2
9.14326e-17
2
-2.64837e-16
2
-3.89292e-16
2
-2.82567e-16
2
-1.5662e-16
2
-2.05344e-17
2
6.12248e-17
2
-1.50538e-17
2
-3.16832e-17
2
-1.14225e-16
2
-8.47289e-17
2
7.61093e-17
2
4.91008e-17
2
-1.15905e-16
2
-7.96934e-17
2
-1.06223e-16
2
1.38162e-16
2
1.46979e-16
2
-9.06069e-17
2
-8.24198e-17
2
2.77563e-18
2
4.88322e-17
2
-3.6682e-18
2
-3.33918e-17
2
-7.31366e-17
2
5.04378e-17
2
6.24566e-17
2
3.48037e-16
2
2.27814e-16
2
1.332e-16
2
-2.25123e-17
2
-2.56525e-17
2
1.13372e-16
2
1.14816e-16
2
1.21395e-16
2
2.49493e-17
2
-1.19716e-16
2
-1.49652e-16
2
-8.29609e-17
2
-6.94285e-17
2
-9.77959e-17
2
-6.2563e-17
2
-2.34525e-16
2
-1.71691e-16
2
-2.22429e-16
2
-2.09652e-16
2
-5.4509e-17
2
-1.90191e-16
2
-9.86246e-17
2
-1.29176e-16
2
-1.97867e-16
2
-1.57325e-16
2
-1.16997e-18
2
-1.85519e-16
2
-3.50764e-16
2
-2.98271e-16
2
-3.19396e-16
2
-1.00148e-16
2
-5.08136e-17
2
-9.96624e-17
2
4.4973e-17
2
7.89005e-18
2
1.24293e-16
2
1.81224e-16
2
-1.21412e-16
2
-1.6767e-16
2
-1.30186e-16
2
-6.33604e-17
2
-1.67114e-16
2
-1.62878e-16
2
-2.50256e-17
2
1.13039e-16
2
1.1998e-17
2
1.48072e-16
2
1.69904e-17
2
-5.82709e-17
2
-1.89188e-16
2
-1.75353e-16
2
-7.26615e-17
2
9.45696e-18
2
-1.02676e-16
2
-2.21341e-16
-3.20782e-16
2
-2.5375e-17
2
5.97591e-17
2
1.27162e-16
2
5.52293e-17
2
2.80134e-17
2
8.50916e-17
2
1.67126e-17
2
-5.51934e-17
2
-2.24228e-16
2
-5.3792e-17
2
-1.76679e-17
2
-7.35502e-17
2
-6.26319e-17
2
-1.52018e-16
2
-2.78857e-16
2
-1.49041e-16
2
-2.31599e-17
2
2.11747e-17
2
-1.99836e-16
2
-2.2196e-16
2
-1.9241e-16
2
-2.0906e-16
2
-4.14446e-16
2
-1.77392e-16
2
-2.26489e-16
2
-8.07331e-17
2
1.68041e-16
2
2.54397e-17
2
4.25443e-17
2
-1.15886e-16
2
7.95391e-17
2
1.35335e-16
2
5.03866e-18
2
1.24066e-16
2
3.28164e-16
2
2.9952e-16
2
1.10063e-16
2
9.99083e-17
2
7.25456e-17
2
3.88847e-17
2
1.20488e-16
2
1.63145e-16
2
2.78798e-16
2