/*--------------------------------*- C++ -*----------------------------------*\
  =========                 |
  \\      /  F ield         | OpenFOAM: The Open Source CFD Toolbox
   \\    /   O peration     | Website:  https://openfoam.org
    \\  /    A nd           | Version:  6
     \\/     M anipulation  |
\*---------------------------------------------------------------------------*/
FoamFile
{
    version     2.0;
    format      ascii;
    class       volScalarField;
    location    "140";
    object      p;
}
// * * * * * * * * * * * * * * * * * * * * * * * * * * * * * * * * * * * * * //

dimensions      [0 2 -2 0 0 0 0];

internalField   nonuniform List<scalar> 
4000
(
1.96027e-10
2.03751e-10
2.37327e-10
2.5462e-10
2.56761e-10
2.70032e-10
2.77332e-10
2.80857e-10
2.97069e-10
3.17461e-10
3.20546e-10
3.2126e-10
3.32698e-10
3.09509e-10
2.89032e-10
2.78268e-10
2.90215e-10
2.94896e-10
2.89106e-10
3.00744e-10
2.99429e-10
2.92697e-10
2.91158e-10
3.00051e-10
3.00809e-10
3.10755e-10
2.97474e-10
2.80666e-10
2.77902e-10
2.67091e-10
2.4375e-10
2.1486e-10
1.75605e-10
1.27342e-10
1.01718e-10
7.6769e-11
5.20225e-11
3.14498e-11
1.34423e-11
-1.0278e-11
-2.9557e-11
-5.21765e-11
-6.23724e-11
-9.26705e-11
-1.20076e-10
-1.22919e-10
-1.4931e-10
-1.62584e-10
-1.70108e-10
-1.83788e-10
-1.88643e-10
-2.13551e-10
-2.1034e-10
-2.1119e-10
-2.18991e-10
-2.1202e-10
-2.21499e-10
-2.38516e-10
-2.57694e-10
-2.94287e-10
-3.17355e-10
-3.27286e-10
-3.51945e-10
-3.686e-10
-3.85081e-10
-4.06043e-10
-4.28499e-10
-4.489e-10
-4.5512e-10
-4.56724e-10
-4.63145e-10
-4.6442e-10
-4.64827e-10
-4.76098e-10
-4.71562e-10
-4.97837e-10
-5.23411e-10
-5.30182e-10
-5.51326e-10
-5.83806e-10
-6.15786e-10
-6.32595e-10
-6.54922e-10
-6.7715e-10
-6.89695e-10
-6.98362e-10
-7.05288e-10
-7.17286e-10
-7.34064e-10
-7.4766e-10
-7.55629e-10
-7.56468e-10
-7.50987e-10
-7.61757e-10
-7.51426e-10
-7.46943e-10
-7.30664e-10
-7.25259e-10
-7.12067e-10
-7.14224e-10
-7.22427e-10
-7.13798e-10
-7.1082e-10
-7.10812e-10
-7.2008e-10
-7.14375e-10
-7.26513e-10
-7.22188e-10
-7.28492e-10
-7.31779e-10
-7.20297e-10
-7.03797e-10
-7.13345e-10
-7.34391e-10
-7.52287e-10
-7.4958e-10
-7.43003e-10
-7.48203e-10
-7.58267e-10
-7.74306e-10
-7.8232e-10
-7.82327e-10
-7.85703e-10
-7.91602e-10
-8.03821e-10
-8.20227e-10
-8.27048e-10
-8.29721e-10
-8.3839e-10
-8.58042e-10
-8.74874e-10
-8.83266e-10
-9.02926e-10
-9.25348e-10
-9.50694e-10
-9.76524e-10
-9.85713e-10
-9.99543e-10
-1.00839e-09
-1.0222e-09
-1.04849e-09
-1.05223e-09
-1.0568e-09
-1.07052e-09
-1.07105e-09
-1.05796e-09
-1.03162e-09
-1.01495e-09
-9.9113e-10
-9.59229e-10
-9.45969e-10
-9.50212e-10
-9.46638e-10
-9.33203e-10
-9.29841e-10
-9.23135e-10
-9.34619e-10
-9.31471e-10
-9.12181e-10
-8.88212e-10
-8.79908e-10
-8.50912e-10
-8.1714e-10
-8.09526e-10
-8.14199e-10
-8.00185e-10
-7.69469e-10
-7.31919e-10
-7.14681e-10
-6.96262e-10
-6.83344e-10
-6.64682e-10
-6.52535e-10
-6.4555e-10
-6.38886e-10
-6.08691e-10
-5.75998e-10
-5.31929e-10
-4.91136e-10
-4.61098e-10
-4.28244e-10
-4.05585e-10
-3.87631e-10
-3.79967e-10
-3.59745e-10
-3.47098e-10
-3.40027e-10
-3.26501e-10
-3.16734e-10
-3.0708e-10
-3.11412e-10
-2.8808e-10
-2.62475e-10
-2.44598e-10
-2.10439e-10
-1.78535e-10
-1.37265e-10
-9.06161e-11
-4.06232e-11
-5.96699e-12
1.82632e-10
2.05706e-10
2.30319e-10
2.40981e-10
2.41494e-10
2.6818e-10
2.82829e-10
2.94367e-10
3.06374e-10
3.28934e-10
3.18214e-10
3.25264e-10
3.2519e-10
3.09932e-10
2.93551e-10
2.78797e-10
3.06526e-10
3.18946e-10
3.04926e-10
3.16536e-10
3.09628e-10
3.00337e-10
3.00015e-10
3.14581e-10
2.96467e-10
3.05268e-10
2.9447e-10
2.814e-10
2.74089e-10
2.53442e-10
2.26798e-10
1.95396e-10
1.58518e-10
1.3099e-10
9.42621e-11
6.96907e-11
4.84309e-11
3.65963e-11
2.8147e-11
5.04367e-12
-2.11994e-11
-4.2335e-11
-6.05218e-11
-8.86195e-11
-1.17035e-10
-1.26931e-10
-1.48166e-10
-1.62907e-10
-1.78345e-10
-1.93229e-10
-1.91749e-10
-1.98618e-10
-2.03421e-10
-2.1082e-10
-2.22227e-10
-2.24283e-10
-2.21397e-10
-2.32081e-10
-2.51747e-10
-2.83153e-10
-3.14203e-10
-3.2268e-10
-3.5495e-10
-3.79262e-10
-3.96091e-10
-4.16091e-10
-4.32099e-10
-4.4829e-10
-4.62208e-10
-4.55073e-10
-4.66404e-10
-4.65341e-10
-4.66814e-10
-4.76936e-10
-4.80101e-10
-4.97856e-10
-5.21058e-10
-5.31284e-10
-5.48887e-10
-5.64509e-10
-5.97327e-10
-6.38971e-10
-6.56231e-10
-6.77226e-10
-6.90995e-10
-7.03438e-10
-7.12417e-10
-7.21768e-10
-7.30659e-10
-7.45351e-10
-7.61951e-10
-7.70289e-10
-7.69281e-10
-7.55515e-10
-7.55854e-10
-7.58392e-10
-7.35485e-10
-7.3013e-10
-7.3261e-10
-7.34647e-10
-7.35181e-10
-7.1985e-10
-7.17976e-10
-7.20723e-10
-7.19257e-10
-7.10428e-10
-7.23062e-10
-7.33547e-10
-7.33427e-10
-7.31416e-10
-7.25165e-10
-7.18431e-10
-7.16621e-10
-7.39207e-10
-7.49658e-10
-7.48466e-10
-7.40358e-10
-7.4511e-10
-7.60443e-10
-7.72465e-10
-7.79913e-10
-7.74195e-10
-7.78522e-10
-7.85168e-10
-8.03044e-10
-8.21565e-10
-8.20909e-10
-8.26582e-10
-8.35365e-10
-8.53732e-10
-8.72912e-10
-8.85245e-10
-8.98405e-10
-9.32216e-10
-9.56633e-10
-9.70163e-10
-9.8214e-10
-1.00943e-09
-1.01918e-09
-1.02862e-09
-1.04016e-09
-1.05223e-09
-1.06844e-09
-1.08018e-09
-1.07024e-09
-1.06239e-09
-1.04583e-09
-1.01659e-09
-9.975e-10
-9.70818e-10
-9.58374e-10
-9.57167e-10
-9.55651e-10
-9.39846e-10
-9.32788e-10
-9.30858e-10
-9.417e-10
-9.44963e-10
-9.29021e-10
-9.02819e-10
-8.89414e-10
-8.72658e-10
-8.38252e-10
-8.24744e-10
-8.1951e-10
-8.15749e-10
-7.67781e-10
-7.31505e-10
-7.06061e-10
-6.8009e-10
-6.69752e-10
-6.60612e-10
-6.39935e-10
-6.34334e-10
-6.25655e-10
-6.03838e-10
-5.86902e-10
-5.5357e-10
-4.98017e-10
-4.62259e-10
-4.32901e-10
-4.06436e-10
-3.89183e-10
-3.77034e-10
-3.63275e-10
-3.58717e-10
-3.44446e-10
-3.24231e-10
-3.09045e-10
-3.1252e-10
-3.16535e-10
-2.93682e-10
-2.61803e-10
-2.28085e-10
-2.00883e-10
-1.84603e-10
-1.43462e-10
-9.44e-11
-4.24117e-11
-9.45825e-12
1.92241e-10
1.99428e-10
2.18145e-10
2.28118e-10
2.36061e-10
2.55975e-10
2.74338e-10
2.92263e-10
3.10428e-10
3.28737e-10
3.2635e-10
3.32771e-10
3.30373e-10
3.0854e-10
2.89615e-10
2.97372e-10
3.1549e-10
3.16044e-10
3.16627e-10
3.23933e-10
3.25812e-10
3.34484e-10
3.18432e-10
3.03893e-10
2.98972e-10
3.07768e-10
2.91951e-10
2.79607e-10
2.65742e-10
2.35292e-10
2.12556e-10
1.87571e-10
1.55317e-10
1.19049e-10
8.44024e-11
6.27061e-11
4.7439e-11
3.4002e-11
3.25861e-11
7.2732e-12
-1.46911e-11
-2.3589e-11
-5.94915e-11
-8.9747e-11
-1.14505e-10
-1.39358e-10
-1.50754e-10
-1.69112e-10
-1.81268e-10
-1.93649e-10
-2.02464e-10
-2.12949e-10
-2.04856e-10
-2.07228e-10
-2.17845e-10
-2.23063e-10
-2.25445e-10
-2.17177e-10
-2.33431e-10
-2.6688e-10
-2.97049e-10
-3.17711e-10
-3.46087e-10
-3.74524e-10
-3.97946e-10
-4.1524e-10
-4.30542e-10
-4.50421e-10
-4.68299e-10
-4.65641e-10
-4.65645e-10
-4.64299e-10
-4.68931e-10
-4.80789e-10
-4.8532e-10
-4.97697e-10
-5.17831e-10
-5.29109e-10
-5.53728e-10
-5.67781e-10
-5.87922e-10
-6.29929e-10
-6.46868e-10
-6.76019e-10
-6.90333e-10
-7.0367e-10
-7.10777e-10
-7.25197e-10
-7.51261e-10
-7.45231e-10
-7.5836e-10
-7.72827e-10
-7.65754e-10
-7.66357e-10
-7.66117e-10
-7.6157e-10
-7.4626e-10
-7.36353e-10
-7.49437e-10
-7.45472e-10
-7.48133e-10
-7.32942e-10
-7.17545e-10
-7.27028e-10
-7.16891e-10
-7.04984e-10
-7.18726e-10
-7.29309e-10
-7.29726e-10
-7.26217e-10
-7.22091e-10
-7.23117e-10
-7.25773e-10
-7.40127e-10
-7.41452e-10
-7.39844e-10
-7.45372e-10
-7.4982e-10
-7.59102e-10
-7.69204e-10
-7.77236e-10
-7.82198e-10
-7.84988e-10
-7.80339e-10
-7.93754e-10
-8.14464e-10
-8.20879e-10
-8.1917e-10
-8.37762e-10
-8.48603e-10
-8.71398e-10
-8.91968e-10
-9.10673e-10
-9.28146e-10
-9.55284e-10
-9.7614e-10
-9.89516e-10
-1.00184e-09
-1.02343e-09
-1.02841e-09
-1.04318e-09
-1.04372e-09
-1.0589e-09
-1.08141e-09
-1.07993e-09
-1.06044e-09
-1.0458e-09
-1.02149e-09
-1.00254e-09
-9.82945e-10
-9.57097e-10
-9.54521e-10
-9.56563e-10
-9.50454e-10
-9.51481e-10
-9.41626e-10
-9.46931e-10
-9.58696e-10
-9.46436e-10
-9.11393e-10
-9.00824e-10
-8.91099e-10
-8.61684e-10
-8.30261e-10
-8.14349e-10
-8.09859e-10
-7.67395e-10
-7.39586e-10
-7.04482e-10
-6.72286e-10
-6.5801e-10
-6.49233e-10
-6.33512e-10
-6.24004e-10
-6.0398e-10
-5.97167e-10
-5.84267e-10
-5.54884e-10
-5.02451e-10
-4.67567e-10
-4.38569e-10
-4.06848e-10
-3.92181e-10
-3.6926e-10
-3.49275e-10
-3.50437e-10
-3.37378e-10
-3.22034e-10
-3.00013e-10
-3.06276e-10
-3.0446e-10
-2.84742e-10
-2.56e-10
-2.26675e-10
-1.89906e-10
-1.68152e-10
-1.44427e-10
-9.88354e-11
-6.45389e-11
-1.5708e-11
1.96406e-10
2.01368e-10
2.10897e-10
2.21634e-10
2.36529e-10
2.50326e-10
2.69447e-10
2.8867e-10
3.04723e-10
3.23414e-10
3.26824e-10
3.33535e-10
3.34205e-10
3.1175e-10
2.98613e-10
3.01825e-10
3.30128e-10
3.1369e-10
3.16382e-10
3.27076e-10
3.28637e-10
3.3247e-10
3.19483e-10
3.07805e-10
3.10461e-10
3.06849e-10
2.95391e-10
2.83285e-10
2.53611e-10
2.22841e-10
1.95825e-10
1.79652e-10
1.48193e-10
1.05013e-10
8.65179e-11
6.81205e-11
5.05604e-11
3.07654e-11
2.72717e-11
5.8957e-12
-1.61109e-11
-2.27153e-11
-5.26724e-11
-9.12342e-11
-1.12058e-10
-1.3703e-10
-1.54361e-10
-1.7183e-10
-1.89349e-10
-1.96801e-10
-2.07204e-10
-2.26564e-10
-2.1573e-10
-2.01657e-10
-2.13208e-10
-2.33855e-10
-2.31497e-10
-2.31746e-10
-2.23326e-10
-2.61217e-10
-2.84996e-10
-2.97713e-10
-3.34127e-10
-3.6564e-10
-3.94244e-10
-3.98676e-10
-4.20898e-10
-4.48111e-10
-4.63203e-10
-4.64637e-10
-4.69351e-10
-4.66694e-10
-4.75976e-10
-4.84606e-10
-4.92081e-10
-5.0516e-10
-5.24081e-10
-5.39773e-10
-5.55842e-10
-5.6735e-10
-5.9508e-10
-6.22584e-10
-6.45054e-10
-6.76475e-10
-6.88165e-10
-7.03793e-10
-7.11799e-10
-7.29513e-10
-7.50439e-10
-7.46402e-10
-7.54213e-10
-7.6476e-10
-7.69393e-10
-7.69104e-10
-7.67453e-10
-7.64828e-10
-7.4528e-10
-7.48688e-10
-7.65517e-10
-7.63389e-10
-7.50776e-10
-7.40678e-10
-7.35777e-10
-7.28103e-10
-7.23065e-10
-7.19599e-10
-7.25609e-10
-7.32633e-10
-7.21215e-10
-7.27867e-10
-7.3008e-10
-7.3754e-10
-7.28422e-10
-7.25802e-10
-7.3146e-10
-7.30653e-10
-7.4548e-10
-7.44882e-10
-7.50057e-10
-7.60345e-10
-7.68843e-10
-7.75647e-10
-7.73837e-10
-7.78441e-10
-7.92153e-10
-8.04528e-10
-8.10737e-10
-8.1501e-10
-8.32591e-10
-8.47227e-10
-8.75877e-10
-8.96475e-10
-9.15298e-10
-9.1818e-10
-9.3948e-10
-9.734e-10
-9.90962e-10
-9.96808e-10
-1.01805e-09
-1.03542e-09
-1.03449e-09
-1.03545e-09
-1.05365e-09
-1.0738e-09
-1.07088e-09
-1.06364e-09
-1.04844e-09
-1.02581e-09
-1.00128e-09
-9.85639e-10
-9.65036e-10
-9.55354e-10
-9.51394e-10
-9.48141e-10
-9.52609e-10
-9.51923e-10
-9.51702e-10
-9.6849e-10
-9.44754e-10
-9.20894e-10
-9.08575e-10
-8.97321e-10
-8.69346e-10
-8.4689e-10
-8.23398e-10
-8.0423e-10
-7.72834e-10
-7.46248e-10
-7.12162e-10
-6.86136e-10
-6.70505e-10
-6.36492e-10
-6.19586e-10
-6.21717e-10
-6.01133e-10
-5.89569e-10
-5.73638e-10
-5.44806e-10
-5.11008e-10
-4.73658e-10
-4.46397e-10
-4.05888e-10
-3.79829e-10
-3.65783e-10
-3.47696e-10
-3.40151e-10
-3.1973e-10
-3.15643e-10
-3.0866e-10
-3.12609e-10
-2.98635e-10
-2.68419e-10
-2.38534e-10
-2.31541e-10
-2.00066e-10
-1.6989e-10
-1.29461e-10
-9.58438e-11
-5.94873e-11
-1.18361e-11
1.96421e-10
1.99193e-10
2.06355e-10
2.1682e-10
2.40396e-10
2.55875e-10
2.66391e-10
2.80094e-10
2.99543e-10
3.15655e-10
3.20642e-10
3.23674e-10
3.31635e-10
3.01486e-10
2.87998e-10
3.19133e-10
3.31209e-10
3.1094e-10
3.14334e-10
3.27269e-10
3.44889e-10
3.30394e-10
3.26638e-10
3.17326e-10
3.17746e-10
3.1267e-10
2.94796e-10
2.82284e-10
2.59026e-10
2.20819e-10
1.86838e-10
1.74814e-10
1.50509e-10
1.20119e-10
8.57152e-11
5.20608e-11
3.26217e-11
2.07751e-11
1.71638e-11
2.54728e-12
-1.71818e-11
-3.96801e-11
-5.98362e-11
-9.1005e-11
-1.18593e-10
-1.39984e-10
-1.67563e-10
-1.87728e-10
-1.94687e-10
-1.97521e-10
-2.24107e-10
-2.34699e-10
-2.17212e-10
-2.03487e-10
-2.03394e-10
-2.23982e-10
-2.37699e-10
-2.37111e-10
-2.32014e-10
-2.62429e-10
-2.716e-10
-2.78441e-10
-3.20303e-10
-3.65904e-10
-3.92646e-10
-4.07506e-10
-4.26007e-10
-4.48061e-10
-4.64136e-10
-4.6451e-10
-4.71584e-10
-4.71033e-10
-4.79736e-10
-4.92931e-10
-4.92225e-10
-4.9585e-10
-5.18723e-10
-5.36868e-10
-5.54698e-10
-5.61739e-10
-5.78739e-10
-6.17223e-10
-6.35129e-10
-6.70527e-10
-6.80939e-10
-6.96929e-10
-7.20197e-10
-7.33424e-10
-7.47125e-10
-7.4541e-10
-7.52902e-10
-7.66123e-10
-7.63608e-10
-7.66467e-10
-7.68563e-10
-7.69725e-10
-7.45925e-10
-7.51711e-10
-7.72229e-10
-7.75067e-10
-7.57968e-10
-7.38775e-10
-7.29207e-10
-7.33666e-10
-7.34103e-10
-7.21826e-10
-7.19286e-10
-7.38119e-10
-7.35516e-10
-7.29585e-10
-7.32483e-10
-7.39136e-10
-7.31792e-10
-7.22354e-10
-7.18128e-10
-7.23696e-10
-7.47078e-10
-7.36595e-10
-7.49883e-10
-7.54248e-10
-7.6326e-10
-7.60219e-10
-7.7839e-10
-7.81952e-10
-7.88922e-10
-7.98277e-10
-8.07718e-10
-8.17909e-10
-8.3637e-10
-8.57948e-10
-8.83848e-10
-9.02159e-10
-9.10391e-10
-9.2254e-10
-9.40377e-10
-9.62137e-10
-9.87606e-10
-1.00091e-09
-1.01468e-09
-1.02995e-09
-1.02102e-09
-1.02005e-09
-1.03888e-09
-1.05598e-09
-1.06168e-09
-1.05524e-09
-1.03082e-09
-1.00808e-09
-9.92317e-10
-9.88629e-10
-9.69536e-10
-9.52933e-10
-9.59624e-10
-9.5781e-10
-9.50177e-10
-9.47163e-10
-9.53065e-10
-9.60613e-10
-9.44252e-10
-9.21025e-10
-9.1567e-10
-8.86023e-10
-8.51028e-10
-8.54533e-10
-8.29726e-10
-8.05002e-10
-7.78276e-10
-7.53496e-10
-7.22249e-10
-6.92312e-10
-6.68851e-10
-6.44329e-10
-6.24829e-10
-6.14726e-10
-6.02329e-10
-5.79956e-10
-5.60066e-10
-5.36564e-10
-5.10784e-10
-4.83355e-10
-4.46453e-10
-3.95061e-10
-3.69763e-10
-3.59203e-10
-3.30983e-10
-3.23523e-10
-3.07202e-10
-2.98709e-10
-3.06253e-10
-3.05518e-10
-2.87829e-10
-2.60932e-10
-2.33155e-10
-2.18453e-10
-1.89307e-10
-1.59049e-10
-1.2209e-10
-8.9325e-11
-5.25431e-11
-1.07009e-11
1.93737e-10
1.99197e-10
2.20772e-10
2.27645e-10
2.3598e-10
2.46745e-10
2.65313e-10
2.6962e-10
2.91155e-10
3.04039e-10
3.1206e-10
3.29893e-10
3.22369e-10
3.02004e-10
3.14496e-10
3.38261e-10
3.2684e-10
3.17577e-10
3.2181e-10
3.30203e-10
3.39468e-10
3.32424e-10
3.26306e-10
3.27982e-10
3.24687e-10
3.14429e-10
3.02815e-10
2.7792e-10
2.4965e-10
2.24448e-10
2.00474e-10
1.77627e-10
1.56545e-10
1.23955e-10
8.80923e-11
4.65667e-11
2.61289e-11
1.62922e-11
1.12268e-11
-1.16659e-13
-1.74619e-11
-4.40371e-11
-6.56888e-11
-1.00668e-10
-1.25301e-10
-1.51114e-10
-1.80265e-10
-1.96554e-10
-2.0425e-10
-2.09256e-10
-2.25669e-10
-2.3696e-10
-2.20233e-10
-2.09057e-10
-2.10633e-10
-2.28889e-10
-2.3848e-10
-2.33018e-10
-2.3724e-10
-2.54277e-10
-2.57595e-10
-2.7087e-10
-3.15997e-10
-3.58891e-10
-3.77966e-10
-4.05267e-10
-4.27715e-10
-4.43483e-10
-4.65728e-10
-4.68916e-10
-4.71691e-10
-4.79463e-10
-4.82729e-10
-4.79455e-10
-4.76953e-10
-4.90235e-10
-4.98817e-10
-5.10722e-10
-5.28619e-10
-5.47027e-10
-5.66328e-10
-5.98263e-10
-6.29086e-10
-6.55404e-10
-6.74666e-10
-6.93425e-10
-7.13934e-10
-7.2631e-10
-7.3779e-10
-7.47123e-10
-7.6118e-10
-7.66709e-10
-7.64774e-10
-7.64873e-10
-7.63122e-10
-7.61056e-10
-7.51635e-10
-7.60782e-10
-7.71383e-10
-7.69894e-10
-7.57659e-10
-7.39929e-10
-7.40869e-10
-7.38336e-10
-7.31654e-10
-7.32262e-10
-7.32632e-10
-7.41973e-10
-7.38012e-10
-7.27933e-10
-7.33331e-10
-7.27002e-10
-7.21132e-10
-7.21387e-10
-7.21679e-10
-7.24154e-10
-7.35637e-10
-7.30847e-10
-7.4138e-10
-7.59389e-10
-7.60787e-10
-7.62221e-10
-7.88491e-10
-7.98313e-10
-8.02077e-10
-8.18071e-10
-8.23754e-10
-8.30217e-10
-8.43312e-10
-8.67006e-10
-8.99286e-10
-9.17393e-10
-9.04903e-10
-9.27722e-10
-9.49384e-10
-9.75794e-10
-9.86789e-10
-9.8313e-10
-9.90756e-10
-1.01469e-09
-1.01237e-09
-1.02081e-09
-1.03299e-09
-1.04153e-09
-1.05004e-09
-1.03747e-09
-1.01988e-09
-1.00444e-09
-9.88392e-10
-9.76604e-10
-9.61818e-10
-9.61003e-10
-9.6599e-10
-9.58565e-10
-9.50924e-10
-9.52036e-10
-9.53532e-10
-9.60048e-10
-9.38435e-10
-9.1367e-10
-9.04963e-10
-8.76681e-10
-8.49503e-10
-8.53762e-10
-8.41518e-10
-8.18696e-10
-7.89629e-10
-7.60736e-10
-7.37366e-10
-7.02536e-10
-6.72307e-10
-6.65989e-10
-6.46675e-10
-6.20908e-10
-6.09653e-10
-5.7882e-10
-5.57128e-10
-5.47893e-10
-5.08154e-10
-4.74921e-10
-4.48809e-10
-3.98294e-10
-3.63637e-10
-3.41272e-10
-3.06727e-10
-3.06262e-10
-2.98831e-10
-2.97124e-10
-2.92201e-10
-2.84906e-10
-2.86053e-10
-2.59391e-10
-2.30595e-10
-2.19301e-10
-1.93557e-10
-1.62338e-10
-1.23314e-10
-8.71234e-11
-4.43191e-11
-4.547e-12
1.98956e-10
2.0253e-10
2.22432e-10
2.20814e-10
2.2976e-10
2.482e-10
2.62299e-10
2.69045e-10
2.79008e-10
3.02672e-10
3.12529e-10
3.33354e-10
3.30425e-10
3.19149e-10
3.33256e-10
3.49456e-10
3.43904e-10
3.30841e-10
3.25098e-10
3.28707e-10
3.33733e-10
3.29775e-10
3.25917e-10
3.35458e-10
3.29469e-10
3.17533e-10
3.04984e-10
2.75854e-10
2.41199e-10
2.21755e-10
1.95935e-10
1.87126e-10
1.70135e-10
1.27164e-10
8.99931e-11
4.73755e-11
3.18689e-11
2.01482e-11
1.21973e-11
1.83935e-12
-1.92326e-11
-4.77822e-11
-7.40009e-11
-1.07679e-10
-1.2578e-10
-1.54175e-10
-1.89517e-10
-2.1305e-10
-2.11071e-10
-2.08453e-10
-2.30855e-10
-2.17571e-10
-2.13668e-10
-2.12699e-10
-2.11542e-10
-2.2272e-10
-2.36794e-10
-2.26128e-10
-2.26925e-10
-2.50645e-10
-2.54894e-10
-2.66061e-10
-3.22267e-10
-3.673e-10
-3.81313e-10
-4.01755e-10
-4.22194e-10
-4.4147e-10
-4.56106e-10
-4.63141e-10
-4.76358e-10
-4.82246e-10
-4.81533e-10
-4.73908e-10
-4.71321e-10
-4.69521e-10
-4.69065e-10
-4.89239e-10
-5.14775e-10
-5.34006e-10
-5.49819e-10
-5.85608e-10
-6.21392e-10
-6.37397e-10
-6.61104e-10
-6.9464e-10
-7.1452e-10
-7.20107e-10
-7.33242e-10
-7.40008e-10
-7.64207e-10
-7.7614e-10
-7.70741e-10
-7.53244e-10
-7.58154e-10
-7.50224e-10
-7.55564e-10
-7.5723e-10
-7.58211e-10
-7.63277e-10
-7.46388e-10
-7.33996e-10
-7.39369e-10
-7.4199e-10
-7.44357e-10
-7.37886e-10
-7.36608e-10
-7.48431e-10
-7.42656e-10
-7.3044e-10
-7.34084e-10
-7.23783e-10
-7.21818e-10
-7.17163e-10
-7.19029e-10
-7.2218e-10
-7.29902e-10
-7.28369e-10
-7.42211e-10
-7.59155e-10
-7.71157e-10
-7.85341e-10
-7.97386e-10
-8.05331e-10
-8.12327e-10
-8.26208e-10
-8.38079e-10
-8.39782e-10
-8.43802e-10
-8.71552e-10
-9.04273e-10
-9.15925e-10
-9.13748e-10
-9.35311e-10
-9.41927e-10
-9.569e-10
-9.69538e-10
-9.73569e-10
-9.78855e-10
-9.99499e-10
-1.00804e-09
-1.02754e-09
-1.03609e-09
-1.03784e-09
-1.04023e-09
-1.03887e-09
-1.01431e-09
-9.89757e-10
-9.79522e-10
-9.8052e-10
-9.67754e-10
-9.67286e-10
-9.67145e-10
-9.60675e-10
-9.52196e-10
-9.60038e-10
-9.67799e-10
-9.51745e-10
-9.29022e-10
-9.0893e-10
-8.84381e-10
-8.69579e-10
-8.58763e-10
-8.56157e-10
-8.44071e-10
-8.12793e-10
-7.89888e-10
-7.65057e-10
-7.37102e-10
-7.07724e-10
-6.89366e-10
-6.77514e-10
-6.58097e-10
-6.27211e-10
-6.0285e-10
-5.7897e-10
-5.63695e-10
-5.38247e-10
-5.04798e-10
-4.67257e-10
-4.33501e-10
-3.91723e-10
-3.58043e-10
-3.19074e-10
-2.99382e-10
-3.02595e-10
-2.97943e-10
-2.83706e-10
-2.81171e-10
-2.80783e-10
-2.74484e-10
-2.56885e-10
-2.32831e-10
-2.15263e-10
-1.86323e-10
-1.6505e-10
-1.31188e-10
-1.00143e-10
-5.33012e-11
-1.20985e-11
2.10838e-10
2.17496e-10
2.2485e-10
2.33402e-10
2.39087e-10
2.57204e-10
2.60984e-10
2.66526e-10
2.81021e-10
2.91376e-10
2.99619e-10
3.2251e-10
3.26455e-10
3.20852e-10
3.35397e-10
3.4636e-10
3.42686e-10
3.40849e-10
3.29724e-10
3.29579e-10
3.36877e-10
3.24763e-10
3.24923e-10
3.37347e-10
3.33808e-10
3.13611e-10
2.91606e-10
2.76708e-10
2.51594e-10
2.24886e-10
1.9014e-10
1.79602e-10
1.6781e-10
1.39125e-10
9.5002e-11
6.11496e-11
4.18338e-11
2.58186e-11
7.40437e-12
-8.52645e-12
-2.61908e-11
-4.87833e-11
-7.39045e-11
-1.02069e-10
-1.29756e-10
-1.60105e-10
-1.98551e-10
-2.14216e-10
-2.17965e-10
-2.11063e-10
-2.12973e-10
-2.02902e-10
-1.95237e-10
-2.06633e-10
-2.14856e-10
-2.18515e-10
-2.20149e-10
-2.15012e-10
-2.25929e-10
-2.41484e-10
-2.59704e-10
-2.86186e-10
-3.20862e-10
-3.57505e-10
-3.79297e-10
-3.94962e-10
-4.14746e-10
-4.25998e-10
-4.44883e-10
-4.68708e-10
-4.64715e-10
-4.79871e-10
-4.81645e-10
-4.70913e-10
-4.65356e-10
-4.52765e-10
-4.63531e-10
-4.7588e-10
-4.95669e-10
-5.25032e-10
-5.45488e-10
-5.70489e-10
-6.04546e-10
-6.33571e-10
-6.50525e-10
-6.81799e-10
-7.07592e-10
-7.22739e-10
-7.23268e-10
-7.27454e-10
-7.58082e-10
-7.68308e-10
-7.63658e-10
-7.55732e-10
-7.41715e-10
-7.29189e-10
-7.45742e-10
-7.58092e-10
-7.53703e-10
-7.45029e-10
-7.32483e-10
-7.25832e-10
-7.43812e-10
-7.59301e-10
-7.51096e-10
-7.4438e-10
-7.51687e-10
-7.47102e-10
-7.49825e-10
-7.35274e-10
-7.32695e-10
-7.29472e-10
-7.23464e-10
-7.24217e-10
-7.1397e-10
-7.20738e-10
-7.32169e-10
-7.28495e-10
-7.42224e-10
-7.51556e-10
-7.72235e-10
-8.01268e-10
-8.07469e-10
-8.12127e-10
-8.14172e-10
-8.30291e-10
-8.47027e-10
-8.58041e-10
-8.59643e-10
-8.71695e-10
-9.13325e-10
-9.29299e-10
-9.27802e-10
-9.37502e-10
-9.4952e-10
-9.60321e-10
-9.64704e-10
-9.54146e-10
-9.6246e-10
-9.87771e-10
-1.01048e-09
-1.04345e-09
-1.03622e-09
-1.03401e-09
-1.0212e-09
-1.0246e-09
-1.02094e-09
-1.00485e-09
-9.8701e-10
-9.84126e-10
-9.8301e-10
-9.85856e-10
-9.71734e-10
-9.70405e-10
-9.56894e-10
-9.59961e-10
-9.59588e-10
-9.4033e-10
-9.16043e-10
-8.88859e-10
-8.65384e-10
-8.54328e-10
-8.58667e-10
-8.51654e-10
-8.40913e-10
-8.19596e-10
-7.9804e-10
-7.72152e-10
-7.42212e-10
-7.13803e-10
-7.02779e-10
-6.92626e-10
-6.7123e-10
-6.37852e-10
-6.14544e-10
-5.83138e-10
-5.61132e-10
-5.27989e-10
-4.8968e-10
-4.57966e-10
-4.29471e-10
-3.8775e-10
-3.48391e-10
-3.25004e-10
-3.03597e-10
-2.97977e-10
-2.91961e-10
-2.82462e-10
-2.81131e-10
-2.77807e-10
-2.72353e-10
-2.57802e-10
-2.32525e-10
-2.07389e-10
-1.81479e-10
-1.72772e-10
-1.41223e-10
-9.91489e-11
-4.24936e-11
-6.67584e-12
2.14628e-10
2.119e-10
2.26908e-10
2.38322e-10
2.46733e-10
2.68321e-10
2.6574e-10
2.65347e-10
2.77376e-10
2.88411e-10
2.96514e-10
3.20619e-10
3.32876e-10
3.24951e-10
3.32851e-10
3.47016e-10
3.6053e-10
3.57341e-10
3.34844e-10
3.13368e-10
3.03748e-10
3.07232e-10
3.10307e-10
3.17679e-10
2.9736e-10
2.85686e-10
2.76879e-10
2.71253e-10
2.53744e-10
2.27315e-10
2.05847e-10
1.89266e-10
1.69637e-10
1.4867e-10
1.14525e-10
7.8447e-11
5.69391e-11
4.04412e-11
2.29916e-11
6.7882e-13
-2.49456e-11
-5.57872e-11
-7.81419e-11
-9.32409e-11
-1.27974e-10
-1.60746e-10
-1.92615e-10
-2.1516e-10
-2.12538e-10
-2.12131e-10
-2.06272e-10
-1.90591e-10
-1.9817e-10
-2.03287e-10
-2.08167e-10
-2.1369e-10
-2.18473e-10
-2.13916e-10
-2.24286e-10
-2.43525e-10
-2.65367e-10
-3.03756e-10
-3.26053e-10
-3.54871e-10
-3.66575e-10
-3.89399e-10
-4.05757e-10
-4.19702e-10
-4.39821e-10
-4.52259e-10
-4.62862e-10
-4.74158e-10
-4.72117e-10
-4.63421e-10
-4.51665e-10
-4.47807e-10
-4.61839e-10
-4.75482e-10
-4.91587e-10
-5.13266e-10
-5.35007e-10
-5.69797e-10
-6.09296e-10
-6.28522e-10
-6.58235e-10
-6.83424e-10
-7.10714e-10
-7.17957e-10
-7.14095e-10
-7.29424e-10
-7.49103e-10
-7.54598e-10
-7.49057e-10
-7.3945e-10
-7.28775e-10
-7.33059e-10
-7.43824e-10
-7.4858e-10
-7.358e-10
-7.27601e-10
-7.28153e-10
-7.43467e-10
-7.53681e-10
-7.56811e-10
-7.46491e-10
-7.40189e-10
-7.47029e-10
-7.4102e-10
-7.35925e-10
-7.32859e-10
-7.3722e-10
-7.29205e-10
-7.09946e-10
-7.29977e-10
-7.22083e-10
-7.243e-10
-7.29274e-10
-7.27112e-10
-7.34886e-10
-7.51209e-10
-7.70014e-10
-7.89413e-10
-8.06216e-10
-8.18123e-10
-8.27039e-10
-8.41852e-10
-8.49421e-10
-8.61504e-10
-8.73554e-10
-8.89532e-10
-9.25257e-10
-9.38243e-10
-9.2553e-10
-9.37234e-10
-9.63701e-10
-9.70295e-10
-9.5599e-10
-9.51911e-10
-9.58448e-10
-9.78791e-10
-1.00535e-09
-1.01648e-09
-1.02826e-09
-1.02404e-09
-1.02112e-09
-1.0206e-09
-1.01322e-09
-1.00155e-09
-9.90964e-10
-9.8206e-10
-9.73871e-10
-9.77454e-10
-9.82777e-10
-9.80976e-10
-9.68314e-10
-9.53374e-10
-9.44133e-10
-9.23931e-10
-8.97877e-10
-8.75007e-10
-8.53606e-10
-8.4214e-10
-8.39891e-10
-8.40555e-10
-8.36639e-10
-8.3104e-10
-8.04769e-10
-7.78315e-10
-7.47893e-10
-7.22109e-10
-7.11984e-10
-6.96112e-10
-6.67735e-10
-6.46018e-10
-6.23112e-10
-5.89791e-10
-5.61506e-10
-5.20489e-10
-4.83875e-10
-4.44273e-10
-4.14824e-10
-3.79576e-10
-3.45466e-10
-3.35035e-10
-3.11752e-10
-3.00967e-10
-2.90643e-10
-2.90195e-10
-2.87261e-10
-2.79912e-10
-2.77697e-10
-2.57544e-10
-2.28245e-10
-2.09359e-10
-1.83191e-10
-1.52546e-10
-1.27477e-10
-8.69171e-11
-4.0066e-11
-1.45912e-11
2.22118e-10
2.15983e-10
2.34424e-10
2.51282e-10
2.58956e-10
2.74656e-10
2.78046e-10
2.80256e-10
2.79838e-10
2.91037e-10
3.00386e-10
3.23007e-10
3.35888e-10
3.33444e-10
3.29553e-10
3.46697e-10
3.53915e-10
3.29786e-10
3.17144e-10
3.09299e-10
2.94327e-10
2.89396e-10
2.82104e-10
2.79531e-10
2.67686e-10
2.61527e-10
2.52328e-10
2.55586e-10
2.56788e-10
2.36688e-10
2.07197e-10
1.95252e-10
1.82103e-10
1.71513e-10
1.3923e-10
9.99911e-11
7.26087e-11
5.73882e-11
3.85319e-11
2.45967e-12
-2.76904e-11
-5.54046e-11
-6.9936e-11
-8.92036e-11
-1.19836e-10
-1.47674e-10
-1.82197e-10
-2.04573e-10
-2.07477e-10
-2.10113e-10
-2.01848e-10
-1.89246e-10
-1.84277e-10
-1.93416e-10
-1.98519e-10
-2.1453e-10
-2.18032e-10
-2.10558e-10
-2.12534e-10
-2.45886e-10
-2.72764e-10
-2.95873e-10
-3.25995e-10
-3.59774e-10
-3.72392e-10
-3.82839e-10
-3.90256e-10
-4.02742e-10
-4.25102e-10
-4.41056e-10
-4.51167e-10
-4.60309e-10
-4.57726e-10
-4.53742e-10
-4.52021e-10
-4.48732e-10
-4.61684e-10
-4.77532e-10
-5.05699e-10
-5.27924e-10
-5.43577e-10
-5.69456e-10
-6.09687e-10
-6.3741e-10
-6.5381e-10
-6.77002e-10
-6.96373e-10
-6.94621e-10
-7.06219e-10
-7.12804e-10
-7.29234e-10
-7.38654e-10
-7.28773e-10
-7.2367e-10
-7.2063e-10
-7.31075e-10
-7.41807e-10
-7.37684e-10
-7.38279e-10
-7.28432e-10
-7.37181e-10
-7.50385e-10
-7.5316e-10
-7.55564e-10
-7.38295e-10
-7.35991e-10
-7.31113e-10
-7.24322e-10
-7.21776e-10
-7.34707e-10
-7.30448e-10
-7.24819e-10
-7.1386e-10
-7.25845e-10
-7.2599e-10
-7.31715e-10
-7.39113e-10
-7.33356e-10
-7.34673e-10
-7.47718e-10
-7.65059e-10
-7.85435e-10
-8.07659e-10
-8.24221e-10
-8.28321e-10
-8.43159e-10
-8.51496e-10
-8.62065e-10
-8.81544e-10
-8.98781e-10
-9.21884e-10
-9.30222e-10
-9.3454e-10
-9.4833e-10
-9.66652e-10
-9.72813e-10
-9.65693e-10
-9.57153e-10
-9.56239e-10
-9.63799e-10
-9.84594e-10
-1.0041e-09
-1.02304e-09
-1.02621e-09
-1.02635e-09
-1.02967e-09
-1.01859e-09
-1.00515e-09
-9.92651e-10
-9.86568e-10
-9.79306e-10
-9.78525e-10
-9.7859e-10
-9.69204e-10
-9.67752e-10
-9.50704e-10
-9.35929e-10
-9.06857e-10
-8.79605e-10
-8.64045e-10
-8.5316e-10
-8.40801e-10
-8.33659e-10
-8.3612e-10
-8.30347e-10
-8.33599e-10
-8.03397e-10
-7.71651e-10
-7.54784e-10
-7.33376e-10
-7.18299e-10
-6.98683e-10
-6.66084e-10
-6.41218e-10
-6.24954e-10
-5.9447e-10
-5.63457e-10
-5.1888e-10
-4.80888e-10
-4.33405e-10
-4.07411e-10
-3.79532e-10
-3.52709e-10
-3.33016e-10
-3.17808e-10
-3.14601e-10
-3.08974e-10
-2.98433e-10
-2.83643e-10
-2.81238e-10
-2.81878e-10
-2.64437e-10
-2.25875e-10
-1.93923e-10
-1.69043e-10
-1.54762e-10
-1.20923e-10
-8.04043e-11
-4.68624e-11
-1.79251e-11
2.35926e-10
2.16034e-10
2.42093e-10
2.74433e-10
2.62583e-10
2.9177e-10
2.88033e-10
2.88786e-10
2.87605e-10
2.99823e-10
3.09217e-10
3.24107e-10
3.46175e-10
3.34481e-10
3.2502e-10
3.37501e-10
3.3127e-10
3.21574e-10
3.12669e-10
2.94578e-10
2.80926e-10
2.72768e-10
2.62407e-10
2.63604e-10
2.49922e-10
2.44043e-10
2.37857e-10
2.3684e-10
2.53244e-10
2.41905e-10
2.11021e-10
2.04665e-10
1.86623e-10
1.79658e-10
1.51684e-10
1.13756e-10
8.75724e-11
6.60202e-11
4.55614e-11
8.66108e-12
-1.76611e-11
-4.20979e-11
-6.18372e-11
-8.57085e-11
-1.17122e-10
-1.41009e-10
-1.8164e-10
-1.99834e-10
-1.92786e-10
-2.04984e-10
-1.94813e-10
-1.90326e-10
-1.77556e-10
-1.80088e-10
-1.94247e-10
-2.07954e-10
-2.19212e-10
-2.14999e-10
-2.13477e-10
-2.52242e-10
-2.83906e-10
-3.05633e-10
-3.29985e-10
-3.56495e-10
-3.73597e-10
-3.77869e-10
-3.82418e-10
-3.96188e-10
-4.16137e-10
-4.35457e-10
-4.37284e-10
-4.42064e-10
-4.41666e-10
-4.53024e-10
-4.52545e-10
-4.52209e-10
-4.79409e-10
-4.94451e-10
-5.2005e-10
-5.33961e-10
-5.50281e-10
-5.7653e-10
-6.07025e-10
-6.32161e-10
-6.53089e-10
-6.70227e-10
-6.84436e-10
-6.80159e-10
-6.89952e-10
-6.99697e-10
-7.13172e-10
-7.24281e-10
-7.21211e-10
-7.17819e-10
-7.19022e-10
-7.2683e-10
-7.3415e-10
-7.2995e-10
-7.31835e-10
-7.35303e-10
-7.43322e-10
-7.53286e-10
-7.46925e-10
-7.39652e-10
-7.30825e-10
-7.26492e-10
-7.27668e-10
-7.23345e-10
-7.17827e-10
-7.24584e-10
-7.23016e-10
-7.26145e-10
-7.17639e-10
-7.17708e-10
-7.28314e-10
-7.40328e-10
-7.4036e-10
-7.34821e-10
-7.32404e-10
-7.49542e-10
-7.72817e-10
-7.88784e-10
-7.99673e-10
-8.14568e-10
-8.27579e-10
-8.38157e-10
-8.54542e-10
-8.67269e-10
-8.80302e-10
-8.98462e-10
-9.19807e-10
-9.37475e-10
-9.42019e-10
-9.50186e-10
-9.575e-10
-9.64782e-10
-9.58666e-10
-9.47525e-10
-9.51072e-10
-9.63253e-10
-9.76706e-10
-9.958e-10
-1.0113e-09
-1.01597e-09
-1.0208e-09
-1.02362e-09
-1.01757e-09
-1.0078e-09
-9.95768e-10
-9.87144e-10
-9.8063e-10
-9.76576e-10
-9.64396e-10
-9.59734e-10
-9.60517e-10
-9.47402e-10
-9.26751e-10
-9.04367e-10
-8.69877e-10
-8.60705e-10
-8.58274e-10
-8.50385e-10
-8.30978e-10
-8.4106e-10
-8.29773e-10
-8.19473e-10
-7.98224e-10
-7.7443e-10
-7.56836e-10
-7.36878e-10
-7.16006e-10
-6.87594e-10
-6.64818e-10
-6.35145e-10
-6.14669e-10
-5.89515e-10
-5.50378e-10
-5.1087e-10
-4.71543e-10
-4.313e-10
-4.0782e-10
-3.82216e-10
-3.60391e-10
-3.42216e-10
-3.26879e-10
-3.24869e-10
-3.16175e-10
-3.03611e-10
-2.89777e-10
-2.8051e-10
-2.81193e-10
-2.48993e-10
-2.18538e-10
-1.90904e-10
-1.63746e-10
-1.56987e-10
-1.26334e-10
-8.51389e-11
-4.87835e-11
-1.71703e-11
2.45584e-10
2.34004e-10
2.47324e-10
2.76716e-10
2.77884e-10
2.91764e-10
2.91109e-10
2.94808e-10
2.97535e-10
3.01751e-10
3.17253e-10
3.27732e-10
3.37923e-10
3.36434e-10
3.34235e-10
3.23317e-10
3.1674e-10
3.11912e-10
3.02839e-10
2.88373e-10
2.70055e-10
2.68615e-10
2.51902e-10
2.51719e-10
2.52234e-10
2.41583e-10
2.20891e-10
2.40833e-10
2.64119e-10
2.39647e-10
2.07581e-10
1.96688e-10
1.91309e-10
1.81569e-10
1.46066e-10
1.20293e-10
9.67824e-11
7.63055e-11
4.43819e-11
1.42507e-11
-1.37752e-11
-4.03017e-11
-6.65041e-11
-9.44895e-11
-1.03419e-10
-1.41668e-10
-1.86204e-10
-2.00055e-10
-1.83609e-10
-1.86641e-10
-1.95449e-10
-1.8509e-10
-1.87959e-10
-1.85452e-10
-1.97684e-10
-2.17008e-10
-2.33121e-10
-2.20222e-10
-2.23794e-10
-2.55808e-10
-2.83046e-10
-3.05487e-10
-3.27267e-10
-3.51399e-10
-3.68664e-10
-3.80231e-10
-3.81531e-10
-3.99865e-10
-4.11866e-10
-4.22863e-10
-4.25904e-10
-4.31164e-10
-4.39277e-10
-4.43203e-10
-4.55497e-10
-4.67475e-10
-4.86322e-10
-5.14899e-10
-5.37592e-10
-5.44285e-10
-5.74442e-10
-6.01759e-10
-6.18657e-10
-6.26557e-10
-6.45337e-10
-6.58509e-10
-6.64773e-10
-6.7598e-10
-6.83333e-10
-6.84383e-10
-6.99437e-10
-7.12887e-10
-7.11591e-10
-7.09392e-10
-7.11908e-10
-7.29126e-10
-7.27883e-10
-7.22528e-10
-7.24841e-10
-7.37102e-10
-7.45535e-10
-7.46224e-10
-7.36765e-10
-7.17011e-10
-7.18356e-10
-7.18243e-10
-7.24494e-10
-7.227e-10
-7.17897e-10
-7.27342e-10
-7.13528e-10
-7.23809e-10