/*--------------------------------*- C++ -*----------------------------------*\
  =========                 |
  \\      /  F ield         | OpenFOAM: The Open Source CFD Toolbox
   \\    /   O peration     | Website:  https://openfoam.org
    \\  /    A nd           | Version:  6
     \\/     M anipulation  |
\*---------------------------------------------------------------------------*/
FoamFile
{
    version     2.0;
    format      ascii;
    class       volVectorField;
    location    "140";
    object      U;
}
// * * * * * * * * * * * * * * * * * * * * * * * * * * * * * * * * * * * * * //

dimensions      [0 1 -1 0 0 0 0];

internalField   nonuniform List<vector> 
4000
(
(400 4.62998e-14 0)
(400 5.1906e-14 0)
(400 5.32044e-14 0)
(400 6.06294e-14 0)
(400 8.18242e-14 0)
(400 9.00939e-14 0)
(400 8.62205e-14 0)
(400 7.37618e-14 0)
(400 6.99985e-14 0)
(400 5.00235e-14 0)
(400 5.4692e-14 0)
(400 7.37656e-14 0)
(400 7.74105e-14 0)
(400 7.42799e-14 0)
(400 7.58578e-14 0)
(400 6.78554e-14 0)
(400 4.38815e-14 0)
(400 4.72434e-15 0)
(400 -4.11731e-15 0)
(400 -1.85256e-14 0)
(400 -2.47509e-14 0)
(400 -1.40372e-14 0)
(400 -8.88917e-15 0)
(400 -3.29468e-14 0)
(400 -3.00147e-14 0)
(400 -3.47259e-14 0)
(400 -1.76517e-14 0)
(400 -1.58605e-14 0)
(400 -3.3545e-14 0)
(400 -4.22835e-14 0)
(400 -4.07036e-14 0)
(400 -3.33371e-14 0)
(400 -3.77695e-16 0)
(400 1.75479e-14 0)
(400 3.00976e-14 0)
(400 3.81916e-14 0)
(400 4.65853e-14 0)
(400 4.64028e-14 0)
(400 5.32838e-14 0)
(400 5.84053e-14 0)
(400 5.98198e-14 0)
(400 6.41308e-14 0)
(400 6.46076e-14 0)
(400 5.71558e-14 0)
(400 5.51619e-14 0)
(400 5.41002e-14 0)
(400 5.34632e-14 0)
(400 4.52413e-14 0)
(400 4.39701e-14 0)
(400 4.96089e-14 0)
(400 5.2248e-14 0)
(400 4.43904e-14 0)
(400 3.14024e-14 0)
(400 2.92557e-14 0)
(400 3.34566e-14 0)
(400 4.93867e-14 0)
(400 5.28381e-14 0)
(400 4.46108e-14 0)
(400 3.38807e-14 0)
(400 2.25437e-14 0)
(400 1.52398e-14 0)
(400 -5.26634e-15 0)
(400 -3.27458e-15 0)
(400 -1.38494e-15 0)
(400 2.64439e-15 0)
(400 8.36734e-15 0)
(400 1.04481e-15 0)
(400 -1.04806e-15 0)
(400 1.62924e-14 0)
(400 2.40812e-14 0)
(400 4.90383e-14 0)
(400 6.34681e-14 0)
(400 5.73457e-14 0)
(400 4.34725e-14 0)
(400 3.27356e-14 0)
(400 1.69669e-14 0)
(400 3.97561e-15 0)
(400 -6.5498e-16 0)
(400 -7.62116e-16 0)
(400 -1.23701e-14 0)
(400 -1.97008e-14 0)
(400 -7.89905e-15 0)
(400 -8.81283e-15 0)
(400 -8.44859e-15 0)
(400 -1.29465e-14 0)
(400 3.01154e-16 0)
(400 1.17927e-14 0)
(400 2.16257e-14 0)
(400 1.91809e-14 0)
(400 1.84088e-14 0)
(400 2.8755e-14 0)
(400 3.92175e-14 0)
(400 3.23515e-14 0)
(400 7.57287e-15 0)
(400 3.58435e-15 0)
(400 2.06546e-14 0)
(400 1.46076e-14 0)
(400 2.59774e-14 0)
(400 4.35436e-14 0)
(400 5.61415e-14 0)
(400 6.6661e-14 0)
(400 5.86691e-14 0)
(400 6.73198e-14 0)
(400 8.52881e-14 0)
(400 7.10932e-14 0)
(400 3.25153e-14 0)
(400 2.02878e-14 0)
(400 2.51257e-14 0)
(400 1.84105e-14 0)
(400 1.48346e-14 0)
(400 2.14547e-14 0)
(400 3.68526e-14 0)
(400 2.40631e-14 0)
(400 1.74589e-14 0)
(400 1.39043e-14 0)
(400 1.29169e-14 0)
(400 1.23696e-14 0)
(400 9.11654e-15 0)
(400 6.54758e-15 0)
(400 2.83518e-15 0)
(400 2.08581e-15 0)
(400 -6.42367e-15 0)
(400 -3.15173e-16 0)
(400 4.24572e-15 0)
(400 6.6753e-15 0)
(400 2.84172e-14 0)
(400 3.95065e-14 0)
(400 2.07738e-14 0)
(400 1.13876e-14 0)
(400 8.9517e-15 0)
(400 7.60049e-15 0)
(400 3.9371e-15 0)
(400 -2.34472e-14 0)
(400 -3.97071e-14 0)
(400 -4.06349e-14 0)
(400 -4.86572e-14 0)
(400 -5.59541e-14 0)
(400 -5.84329e-14 0)
(400 -6.30201e-14 0)
(400 -6.21387e-14 0)
(400 -6.68649e-14 0)
(400 -6.839e-14 0)
(400 -4.85445e-14 0)
(400 -3.37531e-14 0)
(400 -3.25657e-14 0)
(400 -1.71557e-14 0)
(400 -2.46102e-16 0)
(400 -1.58152e-14 0)
(400 -2.0252e-14 0)
(400 -1.22049e-14 0)
(400 3.09886e-15 0)
(400 1.15616e-14 0)
(400 6.13183e-15 0)
(400 -1.09347e-14 0)
(400 -2.06508e-14 0)
(400 -2.67535e-14 0)
(400 -1.84925e-14 0)
(400 -9.81965e-15 0)
(400 -6.77387e-15 0)
(400 2.96973e-15 0)
(400 1.36863e-14 0)
(400 2.41976e-14 0)
(400 3.06424e-14 0)
(400 3.97753e-14 0)
(400 4.24258e-14 0)
(400 4.80772e-14 0)
(400 4.6938e-14 0)
(400 4.86515e-14 0)
(400 4.3829e-14 0)
(400 4.17784e-14 0)
(400 3.03343e-14 0)
(400 2.47841e-14 0)
(400 1.00427e-14 0)
(400 -2.80435e-15 0)
(400 -1.64177e-14 0)
(400 -2.59769e-14 0)
(400 -4.74566e-15 0)
(400 2.15219e-14 0)
(400 1.13839e-14 0)
(400 -4.37674e-15 0)
(400 -1.15376e-14 0)
(400 -1.47797e-14 0)
(400 -1.25159e-14 0)
(400 -1.69212e-14 0)
(400 -2.64812e-14 0)
(400 -1.63707e-14 0)
(400 -1.27809e-14 0)
(400 -2.91343e-14 0)
(400 -5.07145e-14 0)
(400 -5.14438e-14 0)
(400 -3.2481e-14 0)
(400 -4.06141e-14 0)
(400 -6.62354e-14 0)
(400 -8.9213e-14 0)
(400 -1.0513e-13 0)
(400 -9.68183e-14 0)
(400 -8.95536e-14 0)
(400 -8.1602e-14 0)
(400 -7.91117e-14 0)
(400 -7.69955e-14 0)
(400 2.96745e-15 0)
(400 2.23718e-15 0)
(400 1.79807e-14 0)
(400 3.70791e-14 0)
(400 4.64442e-14 0)
(400 5.86234e-14 0)
(400 6.70464e-14 0)
(400 5.54279e-14 0)
(400 4.39352e-14 0)
(400 4.44838e-14 0)
(400 5.37077e-14 0)
(400 5.43948e-14 0)
(400 7.00704e-14 0)
(400 7.88621e-14 0)
(400 9.53005e-14 0)
(400 8.77096e-14 0)
(400 7.31768e-14 0)
(400 6.40066e-14 0)
(400 5.00539e-14 0)
(400 5.512e-14 0)
(400 6.02582e-14 0)
(400 3.1102e-14 0)
(400 9.16086e-15 0)
(400 6.28248e-15 0)
(400 6.76625e-15 0)
(400 5.8489e-15 0)
(400 2.68042e-15 0)
(400 -6.64889e-15 0)
(400 -9.3705e-15 0)
(400 2.27111e-15 0)
(400 8.14895e-15 0)
(400 1.35873e-14 0)
(400 1.79781e-14 0)
(400 1.62103e-14 0)
(400 2.60689e-14 0)
(400 3.3503e-14 0)
(400 4.23474e-14 0)
(400 4.66045e-14 0)
(400 3.79111e-14 0)
(400 4.00935e-14 0)
(400 4.30385e-14 0)
(400 2.79964e-14 0)
(400 3.48488e-14 0)
(400 2.7725e-14 0)
(400 1.79758e-14 0)
(400 3.45037e-14 0)
(400 3.70484e-14 0)
(400 4.41551e-14 0)
(400 5.19208e-14 0)
(400 5.64031e-14 0)
(400 6.7099e-14 0)
(400 5.7614e-14 0)
(400 4.40568e-14 0)
(400 4.33162e-14 0)
(400 4.44622e-14 0)
(400 5.98993e-14 0)
(400 7.23713e-14 0)
(400 5.79009e-14 0)
(400 3.88536e-14 0)
(400 1.8092e-14 0)
(400 1.16253e-14 0)
(400 7.32408e-15 0)
(400 9.64393e-16 0)
(400 1.01188e-14 0)
(400 2.42209e-14 0)
(400 2.77881e-14 0)
(400 2.28341e-14 0)
(400 1.82252e-14 0)
(400 2.87688e-14 0)
(400 3.71962e-14 0)
(400 3.76969e-14 0)
(400 2.96689e-14 0)
(400 1.50985e-14 0)
(400 2.13289e-15 0)
(400 7.47576e-15 0)
(400 -6.83189e-16 0)
(400 -1.08993e-14 0)
(400 -7.95892e-15 0)
(400 3.83407e-15 0)
(400 -8.57071e-15 0)
(400 -3.16035e-14 0)
(400 -2.27974e-14 0)
(400 -2.79051e-14 0)
(400 -2.78219e-14 0)
(400 -2.55413e-14 0)
(400 -1.9095e-14 0)
(400 -1.65354e-14 0)
(400 -1.42251e-14 0)
(400 2.26787e-15 0)
(400 -1.0439e-14 0)
(400 -1.72497e-14 0)
(400 -1.04104e-14 0)
(400 -9.24641e-15 0)
(400 -1.85635e-14 0)
(400 -1.0854e-14 0)
(400 -3.61036e-15 0)
(400 5.373e-15 0)
(400 5.66424e-15 0)
(400 4.03245e-14 0)
(400 6.0677e-14 0)
(400 7.37418e-14 0)
(400 8.26698e-14 0)
(400 8.29877e-14 0)
(400 1.05417e-13 0)
(400 1.08136e-13 0)
(400 1.00116e-13 0)
(400 9.20227e-14 0)
(400 1.04006e-13 0)
(400 1.04856e-13 0)
(400 9.09531e-14 0)
(400 8.12066e-14 0)
(400 9.44515e-14 0)
(400 9.32474e-14 0)
(400 7.94599e-14 0)
(400 4.86281e-14 0)
(400 2.60806e-14 0)
(400 1.89435e-14 0)
(400 1.02471e-14 0)
(400 2.48138e-16 0)
(400 -1.16901e-14 0)
(400 -2.78938e-14 0)
(400 -4.04377e-14 0)
(400 -4.55203e-14 0)
(400 -5.78385e-14 0)
(400 -6.36591e-14 0)
(400 -5.6461e-14 0)
(400 -5.50988e-14 0)
(400 -6.7257e-14 0)
(400 -6.77744e-14 0)
(400 -7.97668e-14 0)
(400 -8.70035e-14 0)
(400 -7.64399e-14 0)
(400 -7.05812e-14 0)
(400 -7.48436e-14 0)
(400 -7.12438e-14 0)
(400 -7.60755e-14 0)
(400 -7.64807e-14 0)
(400 -8.2406e-14 0)
(400 -7.53733e-14 0)
(400 -7.27242e-14 0)
(400 -7.10169e-14 0)
(400 -6.49947e-14 0)
(400 -4.88134e-14 0)
(400 -3.2889e-14 0)
(400 -2.24505e-14 0)
(400 -1.80217e-14 0)
(400 -4.72837e-15 0)
(400 -7.90491e-15 0)
(400 -3.6583e-15 0)
(400 1.91854e-14 0)
(400 2.5717e-14 0)
(400 2.17946e-14 0)
(400 2.14996e-14 0)
(400 2.28243e-14 0)
(400 2.16819e-14 0)
(400 1.46234e-14 0)
(400 -1.28157e-15 0)
(400 1.86241e-15 0)
(400 2.11308e-14 0)
(400 2.62647e-14 0)
(400 2.70822e-14 0)
(400 5.64473e-14 0)
(400 8.94192e-14 0)
(400 9.21482e-14 0)
(400 7.16987e-14 0)
(400 6.99852e-14 0)
(400 6.62575e-14 0)
(400 8.25115e-14 0)
(400 7.89333e-14 0)
(400 6.32799e-14 0)
(400 4.85552e-14 0)
(400 4.86591e-14 0)
(400 4.75119e-14 0)
(400 3.74878e-14 0)
(400 3.69465e-15 0)
(400 2.10054e-15 0)
(400 1.81238e-14 0)
(400 4.32109e-14 0)
(400 4.85224e-14 0)
(400 5.57593e-14 0)
(400 7.58717e-14 0)
(400 8.15758e-14 0)
(400 8.79553e-14 0)
(400 6.87385e-14 0)
(400 5.5974e-14 0)
(400 6.06101e-14 0)
(400 5.61216e-14 0)
(400 5.0358e-14 0)
(400 2.96762e-14 0)
(400 2.21248e-14 0)
(400 2.02009e-15 0)
(400 -7.4768e-15 0)
(400 -9.28685e-15 0)
(400 -1.83709e-14 0)
(400 -3.92838e-14 0)
(400 -5.14113e-14 0)
(400 -5.00739e-14 0)
(400 -4.891e-14 0)
(400 -2.55621e-14 0)
(400 -2.05327e-14 0)
(400 -1.71931e-14 0)
(400 -1.21705e-14 0)
(400 1.01675e-14 0)
(400 2.9163e-14 0)
(400 2.71037e-14 0)
(400 4.68324e-14 0)
(400 6.15887e-14 0)
(400 6.57332e-14 0)
(400 6.8576e-14 0)
(400 8.14764e-14 0)
(400 6.90172e-14 0)
(400 5.59588e-14 0)
(400 4.77831e-14 0)
(400 5.33115e-14 0)
(400 5.81032e-14 0)
(400 4.30477e-14 0)
(400 2.7662e-14 0)
(400 4.84215e-14 0)
(400 5.16062e-14 0)
(400 5.75066e-14 0)
(400 4.42432e-14 0)
(400 9.95578e-15 0)
(400 -1.00895e-14 0)
(400 3.59188e-15 0)
(400 -1.20137e-14 0)
(400 -8.32405e-15 0)
(400 -8.01607e-15 0)
(400 -1.73555e-14 0)
(400 -9.9436e-15 0)
(400 3.53557e-16 0)
(400 3.92637e-15 0)
(400 -5.95033e-15 0)
(400 -1.37896e-14 0)
(400 4.94232e-15 0)
(400 4.21161e-15 0)
(400 3.13155e-15 0)
(400 8.89784e-15 0)
(400 2.85905e-14 0)
(400 4.01923e-14 0)
(400 5.50221e-14 0)
(400 5.55949e-14 0)
(400 3.50366e-14 0)
(400 2.83561e-14 0)
(400 2.39834e-14 0)
(400 1.10889e-14 0)
(400 1.75316e-14 0)
(400 1.57957e-14 0)
(400 1.0074e-14 0)
(400 5.52325e-15 0)
(400 -4.77947e-15 0)
(400 6.35283e-15 0)
(400 3.72918e-14 0)
(400 5.07513e-14 0)
(400 3.50999e-14 0)
(400 2.8855e-14 0)
(400 5.39636e-14 0)
(400 7.60905e-14 0)
(400 8.10229e-14 0)
(400 5.41659e-14 0)
(400 3.98167e-14 0)
(400 2.70761e-14 0)
(400 1.77063e-14 0)
(400 1.16981e-14 0)
(400 1.9043e-14 0)
(400 3.31404e-14 0)
(400 1.82678e-14 0)
(400 1.17609e-14 0)
(400 1.76303e-14 0)
(400 2.27435e-14 0)
(400 3.03852e-14 0)
(400 2.34001e-14 0)
(400 1.17758e-14 0)
(400 2.50542e-15 0)
(400 -9.37228e-15 0)
(400 -1.15445e-14 0)
(400 -1.53786e-14 0)
(400 -2.40658e-14 0)
(400 -2.25223e-14 0)
(400 -1.41911e-14 0)
(400 -5.22748e-15 0)
(400 5.34427e-15 0)
(400 5.67877e-16 0)
(400 7.90474e-16 0)
(400 8.69432e-15 0)
(400 1.54008e-14 0)
(400 2.16354e-14 0)
(400 2.08903e-14 0)
(400 2.37495e-14 0)
(400 3.7478e-14 0)
(400 2.41745e-14 0)
(400 4.47115e-15 0)
(400 -5.75671e-15 0)
(400 -4.33674e-15 0)
(400 5.65864e-15 0)
(400 6.1879e-15 0)
(400 -1.1147e-15 0)
(400 -2.40975e-15 0)
(400 -3.67461e-15 0)
(400 1.06522e-14 0)
(400 2.44705e-14 0)
(400 2.7362e-14 0)
(400 3.88584e-14 0)
(400 4.783e-14 0)
(400 4.7954e-14 0)
(400 4.61357e-14 0)
(400 6.10792e-14 0)
(400 7.49686e-14 0)
(400 8.30031e-14 0)
(400 7.15336e-14 0)
(400 7.10674e-14 0)
(400 7.65371e-14 0)
(400 9.29371e-14 0)
(400 1.00671e-13 0)
(400 8.27828e-14 0)
(400 7.27034e-14 0)
(400 6.66558e-14 0)
(400 8.25691e-14 0)
(400 8.52987e-14 0)
(400 7.26684e-14 0)
(400 5.89167e-14 0)
(400 4.55709e-14 0)
(400 4.52135e-14 0)
(400 3.60603e-14 0)
(400 3.5285e-14 0)
(400 3.29114e-14 0)
(400 2.48724e-14 0)
(400 2.26432e-14 0)
(400 1.35951e-14 0)
(400 1.22004e-14 0)
(400 2.73094e-15 0)
(400 4.76304e-15 0)
(400 1.98458e-14 0)
(400 3.97718e-14 0)
(400 2.26043e-14 0)
(400 4.47778e-16 0)
(400 -2.77342e-15 0)
(400 -2.94528e-15 0)
(400 -3.01225e-14 0)
(400 -4.07925e-14 0)
(400 -3.02696e-14 0)
(400 -2.80026e-14 0)
(400 -4.0198e-14 0)
(400 -4.92451e-14 0)
(400 -4.78578e-14 0)
(400 -3.89787e-14 0)
(400 -3.67544e-14 0)
(400 -3.56733e-14 0)
(400 -2.98336e-14 0)
(400 -3.37169e-14 0)
(400 -2.53986e-14 0)
(400 -3.05275e-14 0)
(400 -4.61477e-14 0)
(400 -6.42672e-14 0)
(400 -6.59377e-14 0)
(400 -5.7881e-14 0)
(400 -5.25386e-14 0)
(400 -6.42127e-14 0)
(400 -4.84916e-14 0)
(400 -3.04524e-14 0)
(400 -1.43306e-14 0)
(400 -4.65636e-15 0)
(400 1.05645e-14 0)
(400 2.79892e-14 0)
(400 3.17823e-14 0)
(400 2.26904e-14 0)
(400 2.88747e-15 0)
(400 8.69107e-15 0)
(400 3.02148e-14 0)
(400 4.65802e-14 0)
(400 6.32342e-14 0)
(400 7.43195e-14 0)
(400 6.45048e-14 0)
(400 6.2471e-14 0)
(400 6.54472e-14 0)
(400 4.99749e-14 0)
(400 4.75719e-14 0)
(400 3.47596e-14 0)
(400 1.89555e-14 0)
(400 2.57424e-14 0)
(400 3.12438e-14 0)
(400 4.79427e-14 0)
(400 4.93044e-14 0)
(400 4.04989e-14 0)
(400 3.70864e-14 0)
(400 3.25233e-14 0)
(400 2.38188e-14 0)
(400 4.28767e-15 0)
(400 -1.1626e-15 0)
(400 2.50346e-15 0)
(400 1.25082e-15 0)
(400 -2.58644e-14 0)
(400 -4.86129e-14 0)
(400 -5.91947e-14 0)
(400 -4.12361e-14 0)
(400 -4.17327e-14 0)
(400 -6.47792e-14 0)
(400 -8.59536e-14 0)
(400 -8.35761e-14 0)
(400 -6.20748e-14 0)
(400 -5.97823e-14 0)
(400 -4.36562e-15 0)
(400 -1.10822e-15 0)
(400 1.63686e-14 0)
(400 3.2713e-14 0)
(400 3.07569e-14 0)
(400 3.05181e-14 0)
(400 3.2334e-14 0)
(400 4.22001e-14 0)
(400 5.08802e-14 0)
(400 5.5994e-14 0)
(400 4.73511e-14 0)
(400 4.29564e-14 0)
(400 3.41626e-14 0)
(400 4.29156e-14 0)
(400 5.07646e-14 0)
(400 3.55997e-14 0)
(400 2.798e-14 0)
(400 4.26343e-14 0)
(400 4.94279e-14 0)
(400 3.77594e-14 0)
(400 4.7168e-15 0)
(400 7.37853e-15 0)
(400 -4.44139e-15 0)
(400 -1.89071e-14 0)
(400 -3.46647e-14 0)
(400 -2.37639e-14 0)
(400 -8.40254e-15 0)
(400 7.82294e-16 0)
(400 1.38448e-14 0)
(400 2.65065e-14 0)
(400 3.9958e-14 0)
(400 3.38066e-14 0)
(400 2.27536e-14 0)
(400 1.15813e-14 0)
(400 7.06566e-15 0)
(400 2.13138e-14 0)
(400 3.75227e-14 0)
(400 5.04188e-14 0)
(400 6.54559e-14 0)
(400 6.33115e-14 0)
(400 5.32028e-14 0)
(400 5.47908e-14 0)
(400 3.57841e-14 0)
(400 2.65916e-14 0)
(400 2.15195e-14 0)
(400 1.27486e-14 0)
(400 1.12418e-14 0)
(400 2.20592e-15 0)
(400 -8.89909e-15 0)
(400 -2.38709e-14 0)
(400 -1.16134e-14 0)
(400 6.43887e-15 0)
(400 1.75688e-14 0)
(400 5.3187e-15 0)
(400 -7.2562e-15 0)
(400 2.35192e-15 0)
(400 2.02104e-14 0)
(400 4.80418e-14 0)
(400 5.46366e-14 0)
(400 6.40115e-14 0)
(400 4.91208e-14 0)
(400 1.92291e-14 0)
(400 8.08355e-15 0)
(400 2.01151e-14 0)
(400 3.17524e-14 0)
(400 3.39767e-14 0)
(400 3.88904e-14 0)
(400 4.34326e-14 0)
(400 4.33308e-14 0)
(400 4.34919e-14 0)
(400 4.33915e-14 0)
(400 3.59847e-14 0)
(400 3.28102e-14 0)
(400 3.18108e-14 0)
(400 2.65874e-14 0)
(400 1.35788e-14 0)
(400 8.36696e-15 0)
(400 1.48541e-14 0)
(400 2.11304e-14 0)
(400 2.72452e-14 0)
(400 2.74848e-14 0)
(400 2.51877e-14 0)
(400 2.47296e-14 0)
(400 3.13141e-14 0)
(400 3.14485e-14 0)
(400 2.7045e-14 0)
(400 3.61861e-14 0)
(400 3.92195e-14 0)
(400 1.91822e-14 0)
(400 4.39445e-15 0)
(400 -1.13399e-14 0)
(400 -1.44462e-14 0)
(400 -4.61191e-15 0)
(400 3.01458e-16 0)
(400 4.18521e-16 0)
(400 7.31169e-16 0)
(400 -1.53563e-14 0)
(400 -1.26486e-14 0)
(400 -2.59081e-15 0)
(400 2.35529e-14 0)
(400 2.978e-14 0)
(400 3.98705e-14 0)
(400 5.573e-14 0)
(400 5.50116e-14 0)
(400 6.57823e-14 0)
(400 8.78919e-14 0)
(400 9.67538e-14 0)
(400 1.06651e-13 0)
(400 1.04237e-13 0)
(400 9.95101e-14 0)
(400 1.03313e-13 0)
(400 1.08073e-13 0)
(400 1.01582e-13 0)
(400 7.54222e-14 0)
(400 5.26994e-14 0)
(400 4.50906e-14 0)
(400 5.68668e-14 0)
(400 3.97951e-14 0)
(400 3.24424e-14 0)
(400 1.59448e-14 0)
(400 1.19087e-15 0)
(400 -2.43085e-14 0)
(400 -2.90899e-14 0)
(400 -2.05067e-14 0)
(400 -1.99415e-14 0)
(400 -3.90801e-14 0)
(400 -4.95782e-14 0)
(400 -4.8992e-14 0)
(400 -5.13212e-14 0)
(400 -4.19841e-14 0)
(400 -2.58328e-14 0)
(400 -9.92489e-15 0)
(400 -6.10379e-15 0)
(400 -1.6177e-16 0)
(400 -5.69887e-15 0)
(400 -1.43935e-14 0)
(400 -1.0787e-14 0)
(400 -5.8656e-15 0)
(400 -7.62256e-15 0)
(400 1.02535e-14 0)
(400 -1.73047e-15 0)
(400 -2.05144e-14 0)
(400 -2.87123e-14 0)
(400 -3.16499e-14 0)
(400 -2.67848e-14 0)
(400 -1.67937e-14 0)
(400 -2.13743e-14 0)
(400 -2.0463e-14 0)
(400 -2.27295e-14 0)
(400 -8.31914e-15 0)
(400 9.27106e-15 0)
(400 9.62141e-15 0)
(400 8.34366e-15 0)
(400 1.16472e-14 0)
(400 9.51933e-15 0)
(400 2.26309e-14 0)
(400 3.2311e-14 0)
(400 3.85014e-14 0)
(400 3.90967e-14 0)
(400 4.85617e-14 0)
(400 6.29648e-14 0)
(400 4.39255e-14 0)
(400 1.65269e-14 0)
(400 3.82293e-14 0)
(400 4.43081e-14 0)
(400 3.19505e-14 0)
(400 4.02664e-14 0)
(400 5.47978e-14 0)
(400 7.73829e-14 0)
(400 1.02219e-13 0)
(400 1.13827e-13 0)
(400 1.09433e-13 0)
(400 1.03587e-13 0)
(400 1.02453e-13 0)
(400 1.16256e-13 0)
(400 1.0585e-13 0)
(400 8.32008e-14 0)
(400 6.39261e-14 0)
(400 7.46674e-14 0)
(400 8.51454e-14 0)
(400 8.80909e-14 0)
(400 7.83281e-14 0)
(400 6.56266e-14 0)
(400 7.77081e-14 0)
(400 7.35826e-14 0)
(400 5.34253e-14 0)
(400 2.23359e-14 0)
(400 -6.0064e-15 0)
(400 -9.84175e-16 0)
(400 -2.4279e-15 0)
(400 -1.71111e-14 0)
(400 -3.66229e-14 0)
(400 -5.52757e-14 0)
(400 -5.9267e-14 0)
(400 -5.16003e-14 0)
(400 -5.74168e-14 0)
(400 -7.69691e-14 0)
(400 -8.17412e-14 0)
(400 -9.18104e-14 0)
(400 -8.85065e-14 0)
(400 4.99739e-15 0)
(400 1.45073e-14 0)
(400 1.089e-14 0)
(400 8.99521e-15 0)
(400 1.35849e-14 0)
(400 2.00837e-14 0)
(400 2.16176e-14 0)
(400 3.6832e-14 0)
(400 3.76947e-14 0)
(400 4.29188e-14 0)
(400 4.23698e-14 0)
(400 3.19925e-14 0)
(400 4.73938e-14 0)
(400 6.5582e-14 0)
(400 5.5266e-14 0)
(400 2.64667e-14 0)
(400 4.0902e-14 0)
(400 3.70865e-14 0)
(400 2.70318e-14 0)
(400 1.85491e-14 0)
(400 4.09569e-15 0)
(400 3.24367e-15 0)
(400 -8.50773e-15 0)
(400 -3.9228e-14 0)
(400 -5.67121e-14 0)
(400 -5.47188e-14 0)
(400 -4.48818e-14 0)
(400 -1.72843e-14 0)
(400 4.08865e-15 0)
(400 1.58773e-14 0)
(400 2.0896e-14 0)
(400 2.24918e-14 0)
(400 7.22063e-15 0)
(400 -1.52681e-14 0)
(400 -1.33612e-14 0)
(400 1.77691e-14 0)
(400 3.99326e-14 0)
(400 4.36304e-14 0)
(400 4.81394e-14 0)
(400 3.64651e-14 0)
(400 2.56068e-14 0)
(400 3.31408e-14 0)
(400 2.47677e-14 0)
(400 1.85604e-14 0)
(400 1.62369e-14 0)
(400 1.46355e-14 0)
(400 2.06493e-14 0)
(400 2.47583e-14 0)
(400 1.684e-14 0)
(400 8.68322e-15 0)
(400 1.13418e-14 0)
(400 5.63173e-15 0)
(400 -5.97923e-15 0)
(400 -6.04316e-15 0)
(400 -8.39415e-15 0)
(400 -1.20643e-14 0)
(400 3.29803e-16 0)
(400 7.52222e-15 0)
(400 3.45588e-14 0)
(400 3.39928e-14 0)
(400 4.07552e-15 0)
(400 -1.46091e-14 0)
(400 -1.69676e-14 0)
(400 -9.56352e-15 0)
(400 -1.57832e-14 0)
(400 8.9628e-15 0)
(400 3.10569e-14 0)
(400 3.65256e-14 0)
(400 4.5764e-14 0)
(400 5.03663e-14 0)
(400 4.63372e-14 0)
(400 5.73297e-14 0)
(400 6.55422e-14 0)
(400 6.24381e-14 0)
(400 5.31298e-14 0)
(400 4.69708e-14 0)
(400 3.26033e-14 0)
(400 2.53105e-14 0)
(400 2.47012e-14 0)
(400 3.01878e-14 0)
(400 1.62959e-14 0)
(400 7.29666e-15 0)
(400 1.13579e-14 0)
(400 1.16342e-14 0)
(400 1.63348e-14 0)
(400 1.43107e-14 0)
(400 1.94194e-14 0)
(400 1.52451e-14 0)
(400 -1.19237e-15 0)
(400 1.27874e-15 0)
(400 1.26086e-14 0)
(400 2.54221e-14 0)
(400 3.1619e-14 0)
(400 3.47863e-14 0)
(400 3.13006e-14 0)
(400 2.16601e-14 0)
(400 1.80735e-14 0)
(400 2.12716e-14 0)
(400 1.78353e-14 0)
(400 2.25573e-14 0)
(400 3.42435e-14 0)
(400 4.31811e-14 0)
(400 5.79161e-14 0)
(400 6.67592e-14 0)
(400 6.83833e-14 0)
(400 8.08768e-14 0)
(400 8.75742e-14 0)
(400 9.25024e-14 0)
(400 1.03693e-13 0)
(400 9.58649e-14 0)
(400 9.69948e-14 0)
(400 7.58725e-14 0)
(400 6.15107e-14 0)
(400 5.51295e-14 0)
(400 4.03974e-14 0)
(400 2.76297e-14 0)
(400 1.55893e-14 0)
(400 -1.74986e-15 0)
(400 -9.7282e-15 0)
(400 -1.44786e-14 0)
(400 -3.87002e-14 0)
(400 -6.71256e-14 0)
(400 -5.45551e-14 0)
(400 -3.62647e-14 0)
(400 -2.77333e-14 0)
(400 -1.98409e-14 0)
(400 -2.14022e-14 0)
(400 -2.11053e-14 0)
(400 -2.78419e-14 0)
(400 -2.06278e-14 0)
(400 -5.63823e-15 0)
(400 4.30478e-15 0)
(400 -1.09595e-14 0)
(400 1.15555e-14 0)
(400 3.66301e-14 0)
(400 5.01051e-14 0)
(400 5.51701e-14 0)
(400 5.5537e-14 0)
(400 4.82763e-14 0)
(400 4.26024e-14 0)
(400 3.01921e-14 0)
(400 2.84043e-14 0)
(400 2.54535e-14 0)
(400 1.39873e-14 0)
(400 1.46114e-14 0)
(400 5.2106e-15 0)
(400 -1.11014e-14 0)
(400 -2.28605e-14 0)
(400 -3.19128e-14 0)
(400 -3.90248e-14 0)
(400 -3.80948e-14 0)
(400 -2.97167e-14 0)
(400 -1.31162e-14 0)
(400 6.47557e-16 0)
(400 7.67948e-15 0)
(400 2.34036e-14 0)
(400 4.11198e-14 0)
(400 4.52649e-14 0)
(400 4.0079e-14 0)
(400 2.42094e-14 0)
(400 2.06154e-14 0)
(400 -4.05484e-15 0)
(400 -2.69584e-14 0)
(400 -1.38848e-14 0)
(400 7.75982e-15 0)
(400 2.11616e-14 0)
(400 3.60796e-14 0)
(400 4.96146e-14 0)
(400 6.73757e-14 0)
(400 6.13249e-14 0)
(400 3.57332e-14 0)
(400 4.68661e-14 0)
(400 6.02305e-14 0)
(400 5.73169e-14 0)
(400 7.25387e-14 0)
(400 5.80018e-14 0)
(400 4.6258e-14 0)
(400 5.9527e-14 0)
(400 6.63961e-14 0)
(400 7.31903e-14 0)
(400 7.61094e-14 0)
(400 7.72479e-14 0)
(400 7.5889e-14 0)
(400 6.64222e-14 0)
(400 3.50716e-14 0)
(400 6.02161e-15 0)
(400 -7.77648e-15 0)
(400 -1.99792e-14 0)
(400 -3.09735e-14 0)
(400 -4.70139e-14 0)
(400 -3.97292e-14 0)
(400 -3.55845e-14 0)
(400 -3.70196e-14 0)
(400 -4.55367e-14 0)
(400 -3.91011e-14 0)
(400 -3.65108e-14 0)
(400 -3.01485e-14 0)
(400 -3.19455e-14 0)
(400 -4.10515e-14 0)
(400 -3.6202e-14 0)
(400 4.78973e-16 0)
(400 7.98989e-15 0)
(400 -2.63197e-15 0)
(400 -1.53509e-15 0)
(400 1.35402e-14 0)
(400 1.91804e-14 0)
(400 2.11612e-14 0)
(400 3.44094e-14 0)
(400 5.54879e-14 0)
(400 6.13277e-14 0)
(400 6.74394e-14 0)
(400 6.16594e-14 0)
(400 7.76009e-14 0)
(400 7.32619e-14 0)
(400 3.42716e-14 0)
(400 1.45147e-14 0)
(400 7.33304e-15 0)
(400 -7.68969e-15 0)
(400 -4.75465e-15 0)
(400 3.64746e-15 0)
(400 1.41746e-14 0)
(400 3.52161e-15 0)
(400 6.97331e-16 0)
(400 -2.00817e-14 0)
(400 -3.66589e-14 0)
(400 -4.42266e-14 0)
(400 -5.67112e-14 0)
(400 -4.94552e-14 0)
(400 -2.4568e-14 0)
(400 -1.55222e-14 0)
(400 -4.81383e-15 0)
(400 4.81642e-15 0)
(400 -1.64011e-15 0)
(400 3.46896e-15 0)
(400 5.38097e-15 0)
(400 1.58726e-14 0)
(400 8.65663e-15 0)
(400 -2.11986e-15 0)
(400 -1.21795e-14 0)
(400 -2.69097e-14 0)
(400 -3.00534e-14 0)
(400 -2.21039e-14 0)
(400 -4.96092e-15 0)
(400 8.57794e-15 0)
(400 2.1698e-15 0)
(400 7.4938e-15 0)
(400 2.28112e-14 0)
(400 4.20568e-14 0)
(400 4.75086e-14 0)
(400 4.80213e-14 0)
(400 5.06822e-14 0)
(400 2.51098e-14 0)
(400 1.35727e-14 0)
(400 1.54568e-14 0)
(400 1.50856e-14 0)
(400 9.70166e-15 0)
(400 1.40452e-14 0)
(400 3.01689e-15 0)
(400 -1.17247e-15 0)
(400 -1.71509e-14 0)
(400 -4.08926e-14 0)
(400 -4.80664e-14 0)
(400 -3.23507e-14 0)
(400 -1.71876e-14 0)
(400 -1.14531e-14 0)
(400 6.05898e-15 0)
(400 2.12535e-14 0)
(400 2.82917e-14 0)
(400 2.25845e-14 0)
(400 1.49941e-14 0)
(400 1.83621e-14 0)
(400 4.08459e-14 0)
(400 5.7836e-14 0)
(400 5.68369e-14 0)
(400 6.44152e-14 0)
(400 6.77763e-14 0)
(400 4.69992e-14 0)
(400 3.17173e-14 0)
(400 1.80379e-14 0)
(400 1.78798e-14 0)
(400 1.47117e-14 0)
(400 4.53546e-15 0)
(400 1.8972e-14 0)
(400 5.58091e-15 0)
(400 3.44986e-15 0)
(400 1.66796e-14 0)
(400 1.73423e-14 0)
(400 -9.41011e-16 0)
(400 -1.40193e-14 0)
(400 -8.65491e-15 0)
(400 1.45535e-14 0)
(400 2.93812e-14 0)
(400 3.64398e-14 0)
(400 2.42758e-14 0)
(400 1.47543e-14 0)
(400 -5.78313e-15 0)
(400 1.02042e-14 0)
(400 2.42241e-14 0)
(400 1.93229e-14 0)
(400 1.8582e-14 0)
(400 1.56284e-14 0)
(400 1.39388e-14 0)
(400 2.2857e-14 0)
(400 2.76524e-14 0)
(400 3.13244e-14 0)
(400 3.73137e-14 0)
(400 4.21014e-14 0)
(400 4.71461e-14 0)
(400 5.39353e-14 0)
(400 5.37971e-14 0)
(400 5.77234e-14 0)
(400 3.9133e-14 0)
(400 3.14463e-14 0)
(400 2.70937e-14 0)
(400 2.72174e-14 0)
(400 1.8213e-14 0)
(400 -9.91734e-15 0)
(400 -1.9878e-14 0)
(400 -3.62707e-14 0)
(400 -4.59558e-14 0)
(400 -6.10567e-14 0)
(400 -5.45146e-14 0)
(400 -5.55902e-14 0)
(400 -4.91564e-14 0)
(400 -3.99196e-14 0)
(400 -2.43038e-14 0)
(400 -1.43214e-14 0)
(400 -1.02786e-14 0)
(400 -2.21491e-14 0)
(400 -2.74732e-14 0)
(400 -2.39874e-14 0)
(400 -2.56543e-14 0)
(400 -2.66137e-14 0)
(400 -6.76039e-15 0)
(400 2.67834e-15 0)
(400 9.61811e-15 0)
(400 9.46435e-15 0)
(400 7.53736e-15 0)
(400 -3.582e-15 0)
(400 -1.95706e-14 0)
(400 -2.32398e-14 0)
(400 -9.93567e-16 0)
(400 1.16878e-14 0)
(400 4.82866e-15 0)
(400 -5.60532e-15 0)
(400 -1.21051e-14 0)
(400 -2.48364e-14 0)
(400 -4.5174e-14 0)
(400 -5.73585e-14 0)
(400 -6.83496e-14 0)
(400 -7.23976e-14 0)
(400 -6.12421e-14 0)
(400 -5.41983e-14 0)
(400 -4.56105e-14 0)
(400 -3.15863e-14 0)
(400 4.13954e-15 0)
(400 3.92575e-14 0)
(400 4.24997e-14 0)
(400 3.30877e-14 0)
(400 2.63783e-14 0)
(400 -2.3306e-15 0)
(400 -6.42894e-15 0)
(400 1.23284e-14 0)
(400 8.62743e-15 0)
(400 2.4962e-14 0)
(400 3.1781e-14 0)
(400 4.0352e-14 0)
(400 4.36757e-14 0)
(400 4.48508e-14 0)
(400 4.03532e-14 0)
(400 3.72148e-14 0)
(400 4.68273e-14 0)
(400 6.5301e-14 0)
(400 6.96636e-14 0)
(400 6.29292e-14 0)
(400 5.93163e-14 0)
(400 7.03713e-14 0)
(400 7.78999e-14 0)
(400 7.85462e-14 0)
(400 7.38301e-14 0)
(400 6.96256e-14 0)
(400 7.77764e-14 0)
(400 7.93855e-14 0)
(400 4.57156e-14 0)
(400 2.96161e-14 0)
(400 2.22613e-14 0)
(400 2.63658e-14 0)
(400 1.93192e-14 0)
(400 -2.45394e-15 0)
(400 -1.76481e-14 0)
(400 -2.25804e-14 0)
(400 -2.76438e-14 0)
(400 -3.15579e-14 0)
(400 -4.15758e-14 0)
(400 -5.02219e-14 0)
(400 -4.58107e-14 0)
(400 -3.60156e-14 0)
(400 -2.36579e-14 0)
(400 -2.11431e-14 0)
(400 -1.67687e-14 0)
(400 -1.76398e-14 0)
(400 -3.00764e-14 0)
(400 -2.88857e-14 0)
(400 -2.8644e-14 0)
(400 -2.5552e-14 0)
(400 -3.08628e-14 0)
(400 -1.62007e-14 0)
(400 -5.80596e-15 0)
(400 9.39275e-15 0)
(400 2.58956e-14 0)
(400 5.00989e-14 0)
(400 7.39665e-14 0)
(400 8.08418e-14 0)
(400 7.3465e-14 0)
(400 6.03856e-14 0)
(400 5.6724e-14 0)
(400 4.13367e-14 0)
(400 2.06274e-14 0)
(400 1.90214e-14 0)
(400 1.52441e-14 0)
(400 3.66969e-15 0)
(400 -2.276e-15 0)
(400 -9.18899e-15 0)
(400 -1.88567e-14 0)
(400 -3.08308e-14 0)
(400 -3.64194e-14 0)
(400 -3.16405e-14 0)
(400 -3.9888e-14 0)
(400 -4.23626e-14 0)
(400 -3.35307e-14 0)
(400 -1.55679e-15 0)
(400 2.76958e-14 0)
(400 4.69402e-14 0)
(400 5.49018e-14 0)
(400 6.58288e-14 0)
(400 5.93447e-14 0)
(400 4.00876e-14 0)
(400 2.06658e-14 0)
(400 9.40905e-15 0)
(400 -2.71827e-15 0)
(400 -5.84525e-15 0)
(400 -4.58169e-17 0)
(400 1.49457e-14 0)
(400 1.63204e-14 0)
(400 1.41368e-14 0)
(400 1.80704e-14 0)
(400 3.06438e-14 0)
(400 4.13785e-14 0)
(400 5.43553e-14 0)
(400 6.04449e-14 0)
(400 5.43345e-14 0)
(400 2.08819e-14 0)
(400 -5.32257e-15 0)
(400 -6.77947e-15 0)
(400 -4.86244e-15 0)
(400 -1.64012e-14 0)
(400 -2.97453e-14 0)
(400 -4.0747e-14 0)
(400 -4.9091e-14 0)
(400 -5.74314e-14 0)
(400 -4.93341e-14 0)
(400 -3.28319e-14 0)
(400 -3.07521e-14 0)
(400 -2.41609e-14 0)
(400 -1.60184e-15 0)
(400 1.49977e-14 0)
(400 2.69456e-14 0)
(400 2.84339e-14 0)
(400 6.50675e-15 0)
(400 3.13462e-15 0)
(400 -7.33857e-16 0)
(400 1.14762e-14 0)
(400 2.91964e-14 0)
(400 4.22114e-14 0)
(400 5.38253e-14 0)
(400 3.74829e-14 0)
(400 3.25734e-14 0)
(400 2.14214e-14 0)
(400 4.96913e-15 0)
(400 4.38047e-15 0)
(400 1.26407e-14 0)
(400 1.27868e-14 0)
(400 1.65057e-14 0)
(400 2.23787e-14 0)
(400 1.6916e-14 0)
(400 1.9043e-14 0)
(400 2.15051e-14 0)
(400 2.54776e-14 0)
(400 2.03061e-14 0)
(400 1.75249e-14 0)
(400 3.39617e-14 0)
(400 3.9237e-14 0)
(400 3.71171e-14 0)
(400 3.31031e-14 0)
(400 1.19746e-14 0)
(400 -2.10775e-14 0)
(400 -1.50389e-14 0)
(400 -2.15966e-15 0)
(400 -2.60181e-15 0)
(400 -5.48444e-15 0)
(400 -1.33935e-14 0)
(400 -2.67216e-14 0)
(400 -3.21154e-14 0)
(400 -6.57236e-15 0)
(400 1.46459e-14 0)
(400 1.81626e-14 0)
(400 2.79592e-14 0)
(400 2.66459e-14 0)
(400 3.6871e-14 0)
(400 3.86284e-14 0)
(400 2.9694e-14 0)
(400 3.35754e-14 0)
(400 4.26229e-14 0)
(400 4.95415e-14 0)
(400 3.70289e-14 0)
(400 2.90611e-14 0)
(400 2.18411e-14 0)
(400 1.63795e-14 0)
(400 3.10832e-15 0)
(400 -2.43359e-14 0)
(400 -2.88008e-14 0)
(400 -1.54179e-15 0)
(400 -1.29111e-15 0)
(400 -1.04445e-14 0)
(400 -1.7023e-14 0)
(400 -1.93467e-14 0)
(400 -5.54889e-15 0)
(400 1.29413e-14 0)
(400 1.55181e-14 0)
(400 1.5793e-15 0)
(400 1.26443e-15 0)
(400 9.53709e-15 0)
(400 3.31267e-14 0)
(400 4.26676e-14 0)
(400 4.90001e-14 0)
(400 4.9109e-14 0)
(400 5.27498e-14 0)
(400 5.12442e-14 0)
(400 4.37244e-14 0)
(400 2.7425e-14 0)
(400 3.49941e-14 0)
(400 6.65519e-14 0)
(400 6.72009e-14 0)
(400 5.59433e-14 0)
(400 2.13154e-14 0)
(400 1.02651e-14 0)
(400 1.20493e-14 0)
(400 1.08119e-15 0)
(400 -1.70113e-14 0)
(400 -2.13621e-14 0)
(400 -1.45651e-14 0)
(400 -6.95398e-15 0)
(400 -2.06574e-14 0)
(400 -1.32037e-14 0)
(400 -5.46376e-15 0)
(400 1.77082e-14 0)
(400 3.77414e-14 0)
(400 2.26604e-14 0)
(400 1.24326e-14 0)
(400 9.92066e-15 0)
(400 -9.05702e-15 0)
(400 -1.48407e-14 0)
(400 8.63033e-15 0)
(400 4.03014e-15 0)
(400 -6.22448e-15 0)
(400 -1.28557e-14 0)
(400 -7.61526e-15 0)
(400 -1.40632e-14 0)
(400 -2.7302e-14 0)
(400 -2.33469e-14 0)
(400 1.41951e-15 0)
(400 1.07411e-14 0)
(400 1.41974e-14 0)
(400 9.6098e-15 0)
(400 1.4049e-15 0)
(400 5.25436e-15 0)
(400 1.46266e-14 0)
(400 7.06842e-16 0)
(400 -8.42043e-15 0)
(400 -1.27551e-14 0)
(400 -1.89167e-14 0)
(400 -1.67477e-14 0)
(400 -2.04207e-14 0)
(400 -2.28259e-14 0)
(400 -1.08005e-14 0)
(400 -3.96341e-15 0)
(400 3.70671e-15 0)
(400 2.01205e-15 0)
(400 2.11598e-15 0)
(400 3.85858e-15 0)
(400 -2.68711e-15 0)
(400 7.41863e-16 0)
(400 7.93016e-16 0)
(400 -2.08289e-14 0)
(400 -3.88308e-14 0)
(400 -2.10658e-14 0)
(400 1.98579e-15 0)
(400 1.55485e-14 0)
(400 9.55801e-15 0)
(400 5.58973e-15 0)
(400 -1.62341e-14 0)
(400 -1.67601e-14 0)
(400 -1.02261e-14 0)
(400 -1.69252e-14 0)
(400 -2.04372e-14 0)
(400 -2.65825e-14 0)
(400 -1.53785e-14 0)
(400 -9.39003e-15 0)
(400 -1.67157e-14 0)
(400 -2.263e-15 0)
(400 1.73666e-14 0)
(400 3.29154e-14 0)
(400 2.81627e-14 0)
(400 2.53688e-14 0)
(400 2.52026e-14 0)
(400 2.4245e-14 0)
(400 1.04585e-14 0)
(400 -1.78774e-14 0)
(400 -3.72515e-14 0)
(400 -3.03026e-14 0)
(400 -1.44576e-14 0)
(400 -6.05722e-15 0)
(400 -6.56978e-15 0)
(400 -7.33297e-15 0)
(400 8.7121e-15 0)
(400 2.08592e-14 0)
(400 2.89501e-14 0)
(400 1.54714e-14 0)
(400 -7.25109e-15 0)
(400 -1.03225e-14 0)
(400 -1.10873e-14 0)
(400 6.23799e-15 0)
(400 3.8598e-14 0)
(400 3.80474e-14 0)
(400 2.89236e-14 0)
(400 6.25474e-15 0)
(400 -1.18891e-14 0)
(400 -2.60712e-14 0)
(400 -3.39749e-14 0)
(400 -3.35577e-14 0)
(400 -2.98753e-14 0)
(400 -1.77128e-14 0)
(400 -9.15919e-15 0)
(400 -1.38227e-14 0)
(400 5.35509e-15 0)
(400 2.04009e-14 0)
(400 2.65404e-14 0)
(400 2.87013e-14 0)