/*--------------------------------*- C++ -*----------------------------------*\
  =========                 |
  \\      /  F ield         | OpenFOAM: The Open Source CFD Toolbox
   \\    /   O peration     | Website:  https://openfoam.org
    \\  /    A nd           | Version:  6
     \\/     M anipulation  |
\*---------------------------------------------------------------------------*/
FoamFile
{
    version     2.0;
    format      ascii;
    class       volScalarField;
    location    "80";
    object      p;
}
// * * * * * * * * * * * * * * * * * * * * * * * * * * * * * * * * * * * * * //

dimensions      [0 2 -2 0 0 0 0];

internalField   nonuniform List<scalar> 
4000
(
-2.94102e-09
-2.93557e-09
-2.90564e-09
-2.8907e-09
-2.89233e-09
-2.87328e-09
-2.86394e-09
-2.85405e-09
-2.82857e-09
-2.81631e-09
-2.81754e-09
-2.80652e-09
-2.796e-09
-2.78867e-09
-2.77251e-09
-2.76798e-09
-2.76129e-09
-2.75203e-09
-2.74344e-09
-2.71309e-09
-2.71853e-09
-2.71883e-09
-2.71774e-09
-2.72357e-09
-2.72298e-09
-2.71686e-09
-2.72445e-09
-2.71758e-09
-2.71818e-09
-2.72992e-09
-2.71878e-09
-2.69895e-09
-2.70977e-09
-2.74232e-09
-2.74681e-09
-2.7448e-09
-2.75032e-09
-2.72924e-09
-2.7134e-09
-2.70318e-09
-2.66425e-09
-2.64591e-09
-2.63085e-09
-2.63206e-09
-2.63703e-09
-2.63853e-09
-2.6729e-09
-2.68616e-09
-2.69108e-09
-2.68948e-09
-2.6818e-09
-2.68481e-09
-2.67549e-09
-2.67369e-09
-2.65178e-09
-2.62928e-09
-2.60301e-09
-2.57845e-09
-2.55641e-09
-2.54853e-09
-2.51785e-09
-2.47118e-09
-2.44843e-09
-2.42051e-09
-2.38724e-09
-2.37047e-09
-2.35703e-09
-2.33091e-09
-2.29524e-09
-2.27289e-09
-2.26018e-09
-2.23753e-09
-2.21803e-09
-2.21246e-09
-2.18234e-09
-2.15895e-09
-2.14031e-09
-2.11551e-09
-2.09671e-09
-2.0723e-09
-2.02932e-09
-1.99991e-09
-1.97579e-09
-1.94011e-09
-1.91631e-09
-1.89143e-09
-1.8674e-09
-1.84506e-09
-1.82579e-09
-1.80984e-09
-1.7876e-09
-1.76711e-09
-1.75082e-09
-1.74955e-09
-1.72663e-09
-1.69729e-09
-1.67345e-09
-1.65152e-09
-1.63684e-09
-1.61561e-09
-1.59659e-09
-1.57508e-09
-1.56504e-09
-1.53862e-09
-1.52056e-09
-1.5021e-09
-1.50323e-09
-1.49553e-09
-1.48426e-09
-1.48074e-09
-1.48387e-09
-1.46905e-09
-1.44966e-09
-1.45244e-09
-1.46199e-09
-1.45225e-09
-1.43092e-09
-1.41578e-09
-1.41275e-09
-1.40418e-09
-1.39022e-09
-1.3953e-09
-1.38415e-09
-1.38984e-09
-1.40177e-09
-1.40398e-09
-1.38905e-09
-1.36777e-09
-1.35501e-09
-1.34104e-09
-1.32417e-09
-1.3143e-09
-1.30574e-09
-1.28086e-09
-1.26907e-09
-1.25994e-09
-1.24331e-09
-1.23345e-09
-1.2167e-09
-1.19508e-09
-1.18262e-09
-1.16464e-09
-1.13901e-09
-1.11138e-09
-1.08536e-09
-1.06599e-09
-1.04097e-09
-1.011e-09
-9.67601e-10
-9.08577e-10
-8.71997e-10
-8.24582e-10
-7.85808e-10
-7.5316e-10
-7.24814e-10
-7.02289e-10
-6.8156e-10
-6.56594e-10
-6.19705e-10
-5.79534e-10
-5.48678e-10
-5.27153e-10
-4.90804e-10
-4.56635e-10
-4.44199e-10
-4.34095e-10
-4.04951e-10
-3.77266e-10
-3.50858e-10
-3.46232e-10
-3.41814e-10
-3.56528e-10
-3.50025e-10
-3.51955e-10
-3.28552e-10
-2.93779e-10
-2.71798e-10
-2.50018e-10
-2.34707e-10
-2.17703e-10
-1.81524e-10
-1.62769e-10
-1.34213e-10
-1.16673e-10
-1.35845e-10
-1.43487e-10
-1.46879e-10
-1.52537e-10
-1.37433e-10
-1.39305e-10
-1.33968e-10
-1.3309e-10
-1.34677e-10
-1.10768e-10
-7.40889e-11
-3.76208e-11
-2.42236e-11
-2.14989e-11
-1.60765e-11
-7.83133e-12
-2.95874e-09
-2.93578e-09
-2.91119e-09
-2.89513e-09
-2.89086e-09
-2.88274e-09
-2.8734e-09
-2.86386e-09
-2.84053e-09
-2.81872e-09
-2.82756e-09
-2.81055e-09
-2.79493e-09
-2.79136e-09
-2.78396e-09
-2.78349e-09
-2.75883e-09
-2.74142e-09
-2.74577e-09
-2.72648e-09
-2.72202e-09
-2.7272e-09
-2.72181e-09
-2.70577e-09
-2.7111e-09
-2.70724e-09
-2.7079e-09
-2.69183e-09
-2.69792e-09
-2.72644e-09
-2.71405e-09
-2.70492e-09
-2.70996e-09
-2.72312e-09
-2.73514e-09
-2.74435e-09
-2.75742e-09
-2.7399e-09
-2.7182e-09
-2.69996e-09
-2.67606e-09
-2.65392e-09
-2.63577e-09
-2.63415e-09
-2.63575e-09
-2.64142e-09
-2.67024e-09
-2.69167e-09
-2.69622e-09
-2.70539e-09
-2.69118e-09
-2.6832e-09
-2.67853e-09
-2.66789e-09
-2.64698e-09
-2.6245e-09
-2.6026e-09
-2.58491e-09
-2.57032e-09
-2.54465e-09
-2.51229e-09
-2.47182e-09
-2.4479e-09
-2.42082e-09
-2.39826e-09
-2.38474e-09
-2.36227e-09
-2.33527e-09
-2.30655e-09
-2.28539e-09
-2.26302e-09
-2.23923e-09
-2.21205e-09
-2.18976e-09
-2.15522e-09
-2.13185e-09
-2.12094e-09
-2.10577e-09
-2.08137e-09
-2.05539e-09
-2.0337e-09
-2.00593e-09
-1.9753e-09
-1.94518e-09
-1.91772e-09
-1.89608e-09
-1.87782e-09
-1.85103e-09
-1.82771e-09
-1.80966e-09
-1.80572e-09
-1.79564e-09
-1.77365e-09
-1.75631e-09
-1.73667e-09
-1.71139e-09
-1.67219e-09
-1.65565e-09
-1.63332e-09
-1.61031e-09
-1.58339e-09
-1.5567e-09
-1.55154e-09
-1.53723e-09
-1.50679e-09
-1.4924e-09
-1.49909e-09
-1.50084e-09
-1.49053e-09
-1.47299e-09
-1.48197e-09
-1.47435e-09
-1.44729e-09
-1.44957e-09
-1.45553e-09
-1.44721e-09
-1.42802e-09
-1.41331e-09
-1.41503e-09
-1.41192e-09
-1.39607e-09
-1.39948e-09
-1.39451e-09
-1.38644e-09
-1.40425e-09
-1.40154e-09
-1.38231e-09
-1.36669e-09
-1.3428e-09
-1.34045e-09
-1.33451e-09
-1.31696e-09
-1.29921e-09
-1.2998e-09
-1.28403e-09
-1.26349e-09
-1.2494e-09
-1.25439e-09
-1.22128e-09
-1.19496e-09
-1.18362e-09
-1.16135e-09
-1.14383e-09
-1.1218e-09
-1.08759e-09
-1.07534e-09
-1.05142e-09
-1.00097e-09
-9.52329e-10
-8.94215e-10
-8.48273e-10
-8.09835e-10
-7.78412e-10
-7.46475e-10
-7.19498e-10
-6.88456e-10
-6.69453e-10
-6.5274e-10
-6.21757e-10
-5.84578e-10
-5.52125e-10
-5.35442e-10
-4.97416e-10
-4.63077e-10
-4.46044e-10
-4.46523e-10
-4.04114e-10
-3.70028e-10
-3.53454e-10
-3.39025e-10
-3.35992e-10
-3.47297e-10
-3.43842e-10
-3.47295e-10
-3.25387e-10
-2.97157e-10
-2.68308e-10
-2.45544e-10
-2.14239e-10
-1.88497e-10
-1.74923e-10
-1.68556e-10
-1.43823e-10
-1.3044e-10
-1.33478e-10
-1.46796e-10
-1.49605e-10
-1.44708e-10
-1.31772e-10
-1.33083e-10
-1.47233e-10
-1.44846e-10
-1.38278e-10
-1.15685e-10
-8.04181e-11
-5.46008e-11
-3.29229e-11
-2.24402e-11
-1.94336e-11
-7.42238e-12
-2.94923e-09
-2.9437e-09
-2.92427e-09
-2.90777e-09
-2.90203e-09
-2.89865e-09
-2.88411e-09
-2.87203e-09
-2.85796e-09
-2.8319e-09
-2.82913e-09
-2.81581e-09
-2.79901e-09
-2.7917e-09
-2.7909e-09
-2.77663e-09
-2.7552e-09
-2.74191e-09
-2.73528e-09
-2.72385e-09
-2.72256e-09
-2.72381e-09
-2.7061e-09
-2.71062e-09
-2.70942e-09
-2.69683e-09
-2.6943e-09
-2.68264e-09
-2.68636e-09
-2.71137e-09
-2.71073e-09
-2.70655e-09
-2.69925e-09
-2.70952e-09
-2.73164e-09
-2.7584e-09
-2.76905e-09
-2.73833e-09
-2.71733e-09
-2.70297e-09
-2.68258e-09
-2.65353e-09
-2.63107e-09
-2.63957e-09
-2.64867e-09
-2.65603e-09
-2.67624e-09
-2.69543e-09
-2.70024e-09
-2.69998e-09
-2.70114e-09
-2.6904e-09
-2.67729e-09
-2.66168e-09
-2.64012e-09
-2.62523e-09
-2.6056e-09
-2.58974e-09
-2.56758e-09
-2.54017e-09
-2.50291e-09
-2.47164e-09
-2.44884e-09
-2.42341e-09
-2.39962e-09
-2.37925e-09
-2.36129e-09
-2.33989e-09
-2.3167e-09
-2.29988e-09
-2.27313e-09
-2.24757e-09
-2.21308e-09
-2.18051e-09
-2.15139e-09
-2.12467e-09
-2.12183e-09
-2.10273e-09
-2.08171e-09
-2.05635e-09
-2.03204e-09
-2.00523e-09
-1.97044e-09
-1.95726e-09
-1.92876e-09
-1.90505e-09
-1.88038e-09
-1.85046e-09
-1.83679e-09
-1.81043e-09
-1.80162e-09
-1.80805e-09
-1.77981e-09
-1.77116e-09
-1.74297e-09
-1.71883e-09
-1.67835e-09
-1.64721e-09
-1.64156e-09
-1.60895e-09
-1.57816e-09
-1.5535e-09
-1.52631e-09
-1.532e-09
-1.50119e-09
-1.47509e-09
-1.48172e-09
-1.49248e-09
-1.48008e-09
-1.46325e-09
-1.46524e-09
-1.46873e-09
-1.45327e-09
-1.45505e-09
-1.45073e-09
-1.44613e-09
-1.43771e-09
-1.42997e-09
-1.42e-09
-1.41013e-09
-1.39722e-09
-1.40047e-09
-1.39151e-09
-1.38626e-09
-1.39801e-09
-1.39251e-09
-1.38052e-09
-1.35804e-09
-1.35569e-09
-1.34573e-09
-1.32583e-09
-1.32387e-09
-1.29822e-09
-1.29811e-09
-1.28981e-09
-1.28226e-09
-1.25549e-09
-1.24053e-09
-1.21924e-09
-1.19345e-09
-1.18718e-09
-1.15272e-09
-1.13537e-09
-1.1341e-09
-1.10467e-09
-1.08346e-09
-1.05226e-09
-1.00184e-09
-9.47898e-10
-8.90401e-10
-8.23177e-10
-8.02238e-10
-7.68498e-10
-7.37625e-10
-7.13806e-10
-6.78728e-10
-6.52391e-10
-6.51281e-10
-6.24446e-10
-5.89686e-10
-5.57727e-10
-5.44503e-10
-5.15667e-10
-4.79639e-10
-4.45285e-10
-4.3093e-10
-4.05175e-10
-3.75934e-10
-3.57695e-10
-3.47734e-10
-3.40114e-10
-3.37542e-10
-3.3925e-10
-3.37728e-10
-3.1683e-10
-2.93311e-10
-2.61068e-10
-2.22166e-10
-2.05058e-10
-1.88759e-10
-1.68003e-10
-1.63704e-10
-1.51496e-10
-1.37547e-10
-1.44904e-10
-1.50975e-10
-1.46165e-10
-1.3313e-10
-1.30245e-10
-1.30084e-10
-1.42696e-10
-1.48455e-10
-1.38913e-10
-1.20013e-10
-9.11984e-11
-8.4007e-11
-5.39e-11
-4.30831e-11
-2.9427e-11
-1.06403e-11
-2.94568e-09
-2.94041e-09
-2.93071e-09
-2.92047e-09
-2.90867e-09
-2.90465e-09
-2.89173e-09
-2.88046e-09
-2.86805e-09
-2.84651e-09
-2.84085e-09
-2.82144e-09
-2.78888e-09
-2.79081e-09
-2.79214e-09
-2.78455e-09
-2.74722e-09
-2.73378e-09
-2.72723e-09
-2.70455e-09
-2.71463e-09
-2.71392e-09
-2.71321e-09
-2.72886e-09
-2.70749e-09
-2.70502e-09
-2.69964e-09
-2.67236e-09
-2.67544e-09
-2.70013e-09
-2.71036e-09
-2.69816e-09
-2.69738e-09
-2.72346e-09
-2.72695e-09
-2.74393e-09
-2.74856e-09
-2.73e-09
-2.70632e-09
-2.69494e-09
-2.68088e-09
-2.66087e-09
-2.63222e-09
-2.65028e-09
-2.65894e-09
-2.6683e-09
-2.67539e-09
-2.67972e-09
-2.68859e-09
-2.69608e-09
-2.70313e-09
-2.68923e-09
-2.67741e-09
-2.65186e-09
-2.63999e-09
-2.62781e-09
-2.60621e-09
-2.59444e-09
-2.56834e-09
-2.53973e-09
-2.5007e-09
-2.45761e-09
-2.43306e-09
-2.40645e-09
-2.38089e-09
-2.35058e-09
-2.34102e-09
-2.3311e-09
-2.31435e-09
-2.29302e-09
-2.26463e-09
-2.23353e-09
-2.20317e-09
-2.16997e-09
-2.14463e-09
-2.12167e-09
-2.11693e-09
-2.11471e-09
-2.08906e-09
-2.0681e-09
-2.04909e-09
-2.00749e-09
-1.98148e-09
-1.96279e-09
-1.93779e-09
-1.9178e-09
-1.89052e-09
-1.85862e-09
-1.82996e-09
-1.8167e-09
-1.8095e-09
-1.81469e-09
-1.78557e-09
-1.7773e-09
-1.74864e-09
-1.72813e-09
-1.6816e-09
-1.65098e-09
-1.64311e-09
-1.60932e-09
-1.58188e-09
-1.55589e-09
-1.5361e-09
-1.51634e-09
-1.49174e-09
-1.48555e-09
-1.47885e-09
-1.49462e-09
-1.48093e-09
-1.45778e-09
-1.45748e-09
-1.46616e-09
-1.45529e-09
-1.45306e-09
-1.45092e-09
-1.44665e-09
-1.44092e-09
-1.43356e-09
-1.41612e-09
-1.41017e-09
-1.40119e-09
-1.39643e-09
-1.39417e-09
-1.39737e-09
-1.39553e-09
-1.39136e-09
-1.381e-09
-1.36539e-09
-1.35439e-09
-1.34344e-09
-1.33064e-09
-1.31902e-09
-1.3044e-09
-1.28481e-09
-1.27799e-09
-1.26717e-09
-1.2468e-09
-1.22289e-09
-1.21152e-09
-1.19962e-09
-1.17119e-09
-1.15431e-09
-1.15097e-09
-1.14285e-09
-1.10264e-09
-1.07655e-09
-1.05045e-09
-1.00264e-09
-9.48373e-10
-8.97862e-10
-8.39435e-10
-8.02766e-10
-7.65414e-10
-7.34045e-10
-7.04657e-10
-6.73809e-10
-6.41754e-10
-6.39333e-10
-6.0915e-10
-5.73555e-10
-5.53532e-10
-5.50636e-10
-5.24443e-10
-4.91385e-10
-4.65654e-10
-4.46913e-10
-4.18201e-10
-3.90133e-10
-3.6506e-10
-3.47162e-10
-3.41905e-10
-3.34603e-10
-3.37109e-10
-3.34655e-10
-3.05311e-10
-2.8069e-10
-2.55844e-10
-2.15545e-10
-1.98265e-10
-1.93081e-10
-1.66102e-10
-1.55371e-10
-1.52215e-10
-1.40717e-10
-1.37351e-10
-1.34949e-10
-1.35674e-10
-1.24052e-10
-1.32968e-10
-1.30257e-10
-1.25697e-10
-1.43625e-10
-1.34562e-10
-1.19123e-10
-1.07917e-10
-9.49372e-11
-7.51947e-11
-4.86438e-11
-3.38217e-11
-1.03158e-11
-2.94716e-09
-2.94603e-09
-2.94092e-09
-2.935e-09
-2.91618e-09
-2.90257e-09
-2.89962e-09
-2.89465e-09
-2.87814e-09
-2.85837e-09
-2.85325e-09
-2.82191e-09
-2.79656e-09
-2.7964e-09
-2.79093e-09
-2.7734e-09
-2.74485e-09
-2.7305e-09
-2.71986e-09
-2.71972e-09
-2.71985e-09
-2.71959e-09
-2.70459e-09
-2.71324e-09
-2.70275e-09
-2.69914e-09
-2.69609e-09
-2.67541e-09
-2.66862e-09
-2.69405e-09
-2.70856e-09
-2.69348e-09
-2.70095e-09
-2.71467e-09
-2.73016e-09
-2.73594e-09
-2.74054e-09
-2.72279e-09
-2.70458e-09
-2.70488e-09
-2.68456e-09
-2.66467e-09
-2.64817e-09
-2.647e-09
-2.67098e-09
-2.66403e-09
-2.66254e-09
-2.67149e-09
-2.68043e-09
-2.69236e-09
-2.69865e-09
-2.68638e-09
-2.66983e-09
-2.65485e-09
-2.63657e-09
-2.62741e-09
-2.60521e-09
-2.58292e-09
-2.54934e-09
-2.5208e-09
-2.47865e-09
-2.43297e-09
-2.4073e-09
-2.38883e-09
-2.35491e-09
-2.33111e-09
-2.32322e-09
-2.31515e-09
-2.30828e-09
-2.27922e-09
-2.25887e-09
-2.23136e-09
-2.20218e-09
-2.17821e-09
-2.14697e-09
-2.12542e-09
-2.12716e-09
-2.12104e-09
-2.09881e-09
-2.07213e-09
-2.04667e-09
-2.01917e-09
-1.98755e-09
-1.96713e-09
-1.93585e-09
-1.90947e-09
-1.88691e-09
-1.86067e-09
-1.8376e-09
-1.80873e-09
-1.7926e-09
-1.78839e-09
-1.77472e-09
-1.76517e-09
-1.74789e-09
-1.72664e-09
-1.68711e-09
-1.65817e-09
-1.65217e-09
-1.62087e-09
-1.58622e-09
-1.54912e-09
-1.5314e-09
-1.52453e-09
-1.49805e-09
-1.48061e-09
-1.4792e-09
-1.49989e-09
-1.48293e-09
-1.44703e-09
-1.4478e-09
-1.47012e-09
-1.46197e-09
-1.44443e-09
-1.44657e-09
-1.44704e-09
-1.44789e-09
-1.43607e-09
-1.44115e-09
-1.41793e-09
-1.41269e-09
-1.40296e-09
-1.40797e-09
-1.40913e-09
-1.40241e-09
-1.39225e-09
-1.37805e-09
-1.35952e-09
-1.3461e-09
-1.33209e-09
-1.31985e-09
-1.30927e-09
-1.28678e-09
-1.27233e-09
-1.27281e-09
-1.26411e-09
-1.23315e-09
-1.2141e-09
-1.2079e-09
-1.19088e-09
-1.17082e-09
-1.15579e-09
-1.14992e-09
-1.14503e-09
-1.12215e-09
-1.08253e-09
-1.04151e-09
-9.95725e-10
-9.61118e-10
-9.09868e-10
-8.4023e-10
-7.91806e-10
-7.7033e-10
-7.41291e-10
-6.93054e-10
-6.65505e-10
-6.37332e-10
-6.09005e-10
-5.94485e-10
-5.62646e-10
-5.5173e-10
-5.5393e-10
-5.29362e-10
-5.08595e-10
-4.76776e-10
-4.46892e-10
-4.25265e-10
-4.01066e-10
-3.71866e-10
-3.46916e-10
-3.47699e-10
-3.36656e-10
-3.27154e-10
-3.12043e-10
-2.90808e-10
-2.79884e-10
-2.538e-10
-2.15149e-10
-2.02697e-10
-1.86902e-10
-1.72719e-10
-1.60328e-10
-1.37524e-10
-1.21585e-10
-1.16939e-10
-1.35666e-10
-1.37038e-10
-1.27418e-10
-1.16362e-10
-1.21369e-10
-1.30634e-10
-1.3823e-10
-1.28179e-10
-1.23674e-10
-1.06143e-10
-1.07732e-10
-8.67575e-11
-5.74684e-11
-4.91673e-11
-1.40501e-11
-2.95138e-09
-2.95186e-09
-2.94501e-09
-2.93648e-09
-2.92607e-09
-2.91613e-09
-2.90908e-09
-2.90991e-09
-2.89246e-09
-2.87012e-09
-2.85295e-09
-2.82418e-09
-2.80661e-09
-2.79422e-09
-2.78403e-09
-2.7693e-09
-2.75169e-09
-2.73592e-09
-2.72341e-09
-2.7113e-09
-2.71221e-09
-2.71555e-09
-2.70493e-09
-2.71113e-09
-2.70179e-09
-2.69339e-09
-2.68337e-09
-2.67525e-09
-2.67181e-09
-2.67965e-09
-2.6841e-09
-2.69081e-09
-2.70201e-09
-2.7184e-09
-2.72713e-09
-2.72995e-09
-2.7279e-09
-2.71798e-09
-2.70519e-09
-2.70787e-09
-2.68932e-09
-2.6697e-09
-2.65885e-09
-2.66784e-09
-2.66588e-09
-2.66252e-09
-2.65987e-09
-2.66889e-09
-2.67756e-09
-2.68746e-09
-2.70374e-09
-2.68758e-09
-2.67614e-09
-2.66086e-09
-2.64262e-09
-2.6307e-09
-2.60507e-09
-2.56783e-09
-2.52701e-09
-2.5002e-09
-2.46632e-09
-2.43276e-09
-2.39629e-09
-2.36481e-09
-2.33114e-09
-2.31272e-09
-2.30351e-09
-2.30544e-09
-2.29128e-09
-2.27744e-09
-2.25756e-09
-2.23529e-09
-2.2077e-09
-2.18047e-09
-2.15421e-09
-2.14695e-09
-2.13863e-09
-2.12419e-09
-2.09433e-09
-2.06819e-09
-2.03833e-09
-2.01148e-09
-1.98921e-09
-1.96399e-09
-1.93618e-09
-1.90514e-09
-1.87816e-09
-1.85968e-09
-1.8404e-09
-1.80561e-09
-1.78601e-09
-1.78e-09
-1.77417e-09
-1.75896e-09
-1.74258e-09
-1.7156e-09
-1.68937e-09
-1.66996e-09
-1.64674e-09
-1.63375e-09
-1.60973e-09
-1.57919e-09
-1.54832e-09
-1.51948e-09
-1.5011e-09
-1.49938e-09
-1.48776e-09
-1.47902e-09
-1.46728e-09
-1.45452e-09
-1.45986e-09
-1.4578e-09
-1.45467e-09
-1.45643e-09
-1.46158e-09
-1.45883e-09
-1.46791e-09
-1.45088e-09
-1.45161e-09
-1.4342e-09
-1.42093e-09
-1.41772e-09
-1.42676e-09
-1.41766e-09
-1.4068e-09
-1.39309e-09
-1.37926e-09
-1.3605e-09
-1.33032e-09
-1.31046e-09
-1.31821e-09
-1.3017e-09
-1.27007e-09
-1.27157e-09
-1.26463e-09
-1.24946e-09
-1.22074e-09
-1.20396e-09
-1.19759e-09
-1.18499e-09
-1.17507e-09
-1.1697e-09
-1.15672e-09
-1.15069e-09
-1.12576e-09
-1.07933e-09
-1.04632e-09
-1.0061e-09
-9.60749e-10
-9.13123e-10
-8.59572e-10
-8.08303e-10
-7.74542e-10
-7.42539e-10
-6.96285e-10
-6.57446e-10
-6.35165e-10
-6.15375e-10
-5.94459e-10
-5.66434e-10
-5.60162e-10
-5.51913e-10
-5.32517e-10
-5.08468e-10
-4.77056e-10
-4.51342e-10
-4.27419e-10
-4.00852e-10
-3.6857e-10
-3.62699e-10
-3.65111e-10
-3.4683e-10
-3.24552e-10
-3.096e-10
-2.92199e-10
-2.74002e-10
-2.53375e-10
-2.21683e-10
-1.94175e-10
-1.75599e-10
-1.63461e-10
-1.38059e-10
-1.21994e-10
-1.13994e-10
-1.115e-10
-1.33868e-10
-1.36038e-10
-1.25359e-10
-1.19157e-10
-1.24449e-10
-1.27902e-10
-1.26454e-10
-1.32241e-10
-1.2257e-10
-1.05929e-10
-1.10438e-10
-9.65161e-11
-6.39379e-11
-5.06551e-11
-1.96658e-11
-2.95595e-09
-2.95968e-09
-2.94979e-09
-2.94316e-09
-2.93246e-09
-2.92667e-09
-2.9199e-09
-2.91078e-09
-2.89569e-09
-2.8693e-09
-2.85307e-09
-2.82138e-09
-2.79711e-09
-2.786e-09
-2.77645e-09
-2.7676e-09
-2.75271e-09
-2.74026e-09
-2.71867e-09
-2.70038e-09
-2.70815e-09
-2.72015e-09
-2.7126e-09
-2.71207e-09
-2.69894e-09
-2.69134e-09
-2.66824e-09
-2.67669e-09
-2.68132e-09
-2.67808e-09
-2.68328e-09
-2.68201e-09
-2.6995e-09
-2.72211e-09
-2.72683e-09
-2.72719e-09
-2.72297e-09
-2.71369e-09
-2.70689e-09
-2.6972e-09
-2.69888e-09
-2.68915e-09
-2.67991e-09
-2.67863e-09
-2.6667e-09
-2.67109e-09
-2.67434e-09
-2.67878e-09
-2.66992e-09
-2.682e-09
-2.70721e-09
-2.68428e-09
-2.68258e-09
-2.66305e-09
-2.63769e-09
-2.63019e-09
-2.60925e-09
-2.55944e-09
-2.50929e-09
-2.49129e-09
-2.45669e-09
-2.41881e-09
-2.38577e-09
-2.36201e-09
-2.33413e-09
-2.29406e-09
-2.2877e-09
-2.30042e-09
-2.2841e-09
-2.26579e-09
-2.24633e-09
-2.23246e-09
-2.21264e-09
-2.18897e-09
-2.17737e-09
-2.16032e-09
-2.13627e-09
-2.12342e-09
-2.09495e-09
-2.05981e-09
-2.03591e-09
-2.01199e-09
-1.9851e-09
-1.95802e-09
-1.9268e-09
-1.90549e-09
-1.85936e-09
-1.846e-09
-1.8331e-09
-1.80513e-09
-1.77722e-09
-1.76491e-09
-1.76227e-09
-1.74889e-09
-1.73878e-09
-1.7041e-09
-1.68783e-09
-1.67727e-09
-1.65188e-09
-1.64052e-09
-1.6159e-09
-1.585e-09
-1.55858e-09
-1.53416e-09
-1.51611e-09
-1.5019e-09
-1.49128e-09
-1.4845e-09
-1.47314e-09
-1.46435e-09
-1.46667e-09
-1.46276e-09
-1.45376e-09
-1.46528e-09
-1.47168e-09
-1.48254e-09
-1.49011e-09
-1.47545e-09
-1.46252e-09
-1.44915e-09
-1.42951e-09
-1.43223e-09
-1.43207e-09
-1.41746e-09
-1.41236e-09
-1.40003e-09
-1.38828e-09
-1.36546e-09
-1.32352e-09
-1.30691e-09
-1.30183e-09
-1.29453e-09
-1.26874e-09
-1.25378e-09
-1.23939e-09
-1.2298e-09
-1.21935e-09
-1.21011e-09
-1.1957e-09
-1.1868e-09
-1.17794e-09
-1.18338e-09
-1.1588e-09
-1.13747e-09
-1.11874e-09
-1.08121e-09
-1.03883e-09
-9.97958e-10
-9.57293e-10
-9.24998e-10
-8.68763e-10
-8.23262e-10
-7.861e-10
-7.4784e-10
-7.00553e-10
-6.73363e-10
-6.48908e-10
-6.10909e-10
-5.98808e-10
-5.71309e-10
-5.72472e-10
-5.6089e-10
-5.35857e-10
-5.05801e-10
-4.70468e-10
-4.51261e-10
-4.34698e-10
-4.13346e-10
-3.78419e-10
-3.71127e-10
-3.62754e-10
-3.40506e-10
-3.13522e-10
-3.08419e-10
-2.9257e-10
-2.71094e-10
-2.49141e-10
-2.25674e-10
-1.97333e-10
-1.7252e-10
-1.42421e-10
-1.25405e-10
-1.09272e-10
-1.00422e-10
-1.06021e-10
-1.14361e-10
-1.23053e-10
-1.28865e-10
-1.22682e-10
-1.20728e-10
-1.0733e-10
-1.23123e-10
-1.24649e-10
-1.08361e-10
-9.36319e-11
-7.89816e-11
-8.40683e-11
-6.80986e-11
-3.86692e-11
-1.6189e-11
-2.95794e-09
-2.95469e-09
-2.95034e-09
-2.94102e-09
-2.93568e-09
-2.93193e-09
-2.93004e-09
-2.91215e-09
-2.89511e-09
-2.87116e-09
-2.85389e-09
-2.81872e-09
-2.79864e-09
-2.79725e-09
-2.78057e-09
-2.76734e-09
-2.74797e-09
-2.71982e-09
-2.71662e-09
-2.70853e-09
-2.69384e-09
-2.70675e-09
-2.71253e-09
-2.7004e-09
-2.69276e-09
-2.68818e-09
-2.6766e-09
-2.67551e-09
-2.67885e-09
-2.67954e-09
-2.67736e-09
-2.68939e-09
-2.70749e-09
-2.7263e-09
-2.72659e-09
-2.72683e-09
-2.72472e-09
-2.71697e-09
-2.71043e-09
-2.71792e-09
-2.71144e-09
-2.70449e-09
-2.6892e-09
-2.67892e-09
-2.66799e-09
-2.67715e-09
-2.67572e-09
-2.67712e-09
-2.66442e-09
-2.67394e-09
-2.70034e-09
-2.68858e-09
-2.67358e-09
-2.66365e-09
-2.64075e-09
-2.6222e-09
-2.59796e-09
-2.55109e-09
-2.50985e-09
-2.48037e-09
-2.44698e-09
-2.40808e-09
-2.37535e-09
-2.34636e-09
-2.32733e-09
-2.30204e-09
-2.29383e-09
-2.28906e-09
-2.27253e-09
-2.26054e-09
-2.22713e-09
-2.22626e-09
-2.20512e-09
-2.18827e-09
-2.1797e-09
-2.16101e-09
-2.14882e-09
-2.12603e-09
-2.08791e-09
-2.06709e-09
-2.03308e-09
-2.00813e-09
-1.99169e-09
-1.96217e-09
-1.92732e-09
-1.88551e-09
-1.84509e-09
-1.84106e-09
-1.83408e-09
-1.80269e-09
-1.77241e-09
-1.76431e-09
-1.76106e-09
-1.75085e-09
-1.72766e-09
-1.70439e-09
-1.6982e-09
-1.68155e-09
-1.66085e-09
-1.63351e-09
-1.61711e-09
-1.58747e-09
-1.56806e-09
-1.54604e-09
-1.5161e-09
-1.5011e-09
-1.49984e-09
-1.48945e-09
-1.49144e-09
-1.46671e-09
-1.4685e-09
-1.47549e-09
-1.46692e-09
-1.47234e-09
-1.47741e-09
-1.49205e-09
-1.49957e-09
-1.47706e-09
-1.46934e-09
-1.45515e-09
-1.4366e-09
-1.4395e-09
-1.4325e-09
-1.42973e-09
-1.41337e-09
-1.3981e-09
-1.39546e-09
-1.36763e-09
-1.32716e-09
-1.29537e-09
-1.29137e-09
-1.28763e-09
-1.25618e-09
-1.25436e-09
-1.23806e-09
-1.23139e-09
-1.22539e-09
-1.2127e-09
-1.20619e-09
-1.20505e-09
-1.19847e-09
-1.19668e-09
-1.15655e-09
-1.13505e-09
-1.10261e-09
-1.07758e-09
-1.04221e-09
-1.00027e-09
-9.64519e-10
-9.11106e-10
-8.61974e-10
-8.30988e-10
-7.99461e-10
-7.58679e-10
-7.09595e-10
-6.82356e-10
-6.48324e-10
-6.21442e-10
-5.96956e-10
-5.69386e-10
-5.73189e-10
-5.67843e-10
-5.4214e-10
-5.05174e-10
-4.78744e-10
-4.62676e-10
-4.39055e-10
-4.11759e-10
-3.81882e-10
-3.81083e-10
-3.69903e-10
-3.50501e-10
-3.2974e-10
-3.06153e-10
-2.91229e-10
-2.7581e-10
-2.50112e-10
-2.17857e-10
-1.92969e-10
-1.65845e-10
-1.38974e-10
-1.19736e-10
-1.02482e-10
-8.86203e-11
-8.7806e-11
-1.04588e-10
-1.1221e-10
-1.21604e-10
-1.20231e-10
-1.27594e-10
-1.17295e-10
-1.19443e-10
-1.22282e-10
-9.10204e-11
-7.8056e-11
-7.12307e-11
-6.69215e-11
-5.52924e-11
-1.05458e-11
2.83595e-13
-2.96195e-09
-2.97153e-09
-2.95377e-09
-2.94588e-09
-2.93637e-09
-2.92067e-09
-2.90943e-09
-2.89918e-09
-2.88623e-09
-2.85722e-09
-2.84772e-09
-2.81405e-09
-2.79802e-09
-2.79267e-09
-2.78153e-09
-2.76375e-09
-2.73932e-09
-2.71446e-09
-2.72214e-09
-2.72241e-09
-2.70709e-09
-2.71213e-09
-2.70449e-09
-2.68777e-09
-2.69322e-09
-2.69131e-09
-2.68347e-09
-2.67631e-09
-2.67891e-09
-2.68281e-09
-2.68526e-09
-2.69185e-09
-2.71013e-09
-2.72766e-09
-2.739e-09
-2.73612e-09
-2.73821e-09
-2.73032e-09
-2.72015e-09
-2.72245e-09
-2.71953e-09
-2.70914e-09
-2.68587e-09
-2.67995e-09
-2.67097e-09
-2.66607e-09
-2.66515e-09
-2.66307e-09
-2.65284e-09
-2.66835e-09
-2.69569e-09
-2.67955e-09
-2.67616e-09
-2.65928e-09
-2.63181e-09
-2.6186e-09
-2.59541e-09
-2.55528e-09
-2.52065e-09
-2.46967e-09
-2.43189e-09
-2.40286e-09
-2.36661e-09
-2.33533e-09
-2.31757e-09
-2.30694e-09
-2.30026e-09
-2.29011e-09
-2.27087e-09
-2.24826e-09
-2.22152e-09
-2.21658e-09
-2.20345e-09
-2.18898e-09
-2.17755e-09
-2.16853e-09
-2.1507e-09
-2.12698e-09
-2.09245e-09
-2.06476e-09
-2.02212e-09
-2.00968e-09
-1.97432e-09
-1.94451e-09
-1.91191e-09
-1.87594e-09
-1.84755e-09
-1.83763e-09
-1.81667e-09
-1.80098e-09
-1.78506e-09
-1.77469e-09
-1.75224e-09
-1.7315e-09
-1.72471e-09
-1.70653e-09
-1.70365e-09
-1.68111e-09
-1.65115e-09
-1.63805e-09
-1.63032e-09
-1.60437e-09
-1.56774e-09
-1.5344e-09
-1.50004e-09
-1.50038e-09
-1.50452e-09
-1.51022e-09
-1.49264e-09
-1.475e-09
-1.48141e-09
-1.48533e-09
-1.47721e-09
-1.48671e-09
-1.48771e-09
-1.48579e-09
-1.50681e-09
-1.4908e-09
-1.47438e-09
-1.46182e-09
-1.45309e-09
-1.44512e-09
-1.44099e-09
-1.43057e-09
-1.41163e-09
-1.39864e-09
-1.3775e-09
-1.35678e-09
-1.32012e-09
-1.29635e-09
-1.28706e-09
-1.2741e-09
-1.25068e-09
-1.24187e-09
-1.24335e-09
-1.23814e-09
-1.22234e-09
-1.21296e-09
-1.20574e-09
-1.2135e-09
-1.20347e-09
-1.17447e-09
-1.13776e-09
-1.13055e-09
-1.09919e-09
-1.05779e-09
-1.03119e-09
-9.95452e-10
-9.5775e-10
-9.06184e-10
-8.56016e-10
-8.31887e-10
-8.1579e-10
-7.61015e-10
-7.1988e-10
-6.89139e-10
-6.49893e-10
-6.15028e-10
-5.90694e-10
-5.72021e-10
-5.69614e-10
-5.56531e-10
-5.46646e-10
-5.17256e-10
-4.91712e-10
-4.68506e-10
-4.50992e-10
-4.29921e-10
-3.9516e-10
-3.88221e-10
-3.72477e-10
-3.48986e-10
-3.31741e-10
-3.04886e-10
-2.87287e-10
-2.76032e-10
-2.45914e-10
-1.97996e-10
-1.82703e-10
-1.55066e-10
-1.39131e-10
-1.23918e-10
-1.11309e-10
-1.07446e-10
-9.55509e-11
-9.88932e-11
-1.11048e-10
-1.17242e-10
-1.13021e-10
-1.18356e-10
-1.17721e-10
-1.20444e-10
-1.08859e-10
-8.05658e-11
-5.59891e-11
-4.18396e-11
-4.40753e-11
-3.21823e-11
-4.91119e-13
5.30904e-12
-2.95666e-09
-2.96999e-09
-2.9574e-09
-2.94981e-09
-2.93324e-09
-2.91526e-09
-2.89965e-09
-2.88597e-09
-2.86691e-09
-2.84548e-09
-2.83499e-09
-2.80667e-09
-2.78118e-09
-2.77719e-09
-2.76826e-09
-2.75111e-09
-2.73865e-09
-2.73534e-09
-2.72099e-09
-2.71058e-09
-2.71136e-09
-2.71359e-09
-2.69747e-09
-2.68943e-09
-2.70076e-09
-2.70172e-09
-2.70188e-09
-2.68776e-09
-2.67996e-09
-2.69847e-09
-2.71895e-09
-2.71755e-09
-2.72512e-09
-2.73261e-09
-2.74948e-09
-2.7492e-09
-2.74624e-09
-2.73034e-09
-2.72437e-09
-2.73688e-09
-2.72658e-09
-2.70622e-09
-2.68715e-09
-2.67944e-09
-2.6685e-09
-2.65388e-09
-2.657e-09
-2.66093e-09
-2.65767e-09
-2.66421e-09
-2.67799e-09
-2.67271e-09
-2.66533e-09
-2.65105e-09
-2.61724e-09
-2.60711e-09
-2.59137e-09
-2.55699e-09
-2.51972e-09
-2.45898e-09
-2.41133e-09
-2.38249e-09
-2.35866e-09
-2.3389e-09
-2.31863e-09
-2.3075e-09
-2.2892e-09
-2.2806e-09
-2.26753e-09
-2.24445e-09
-2.22221e-09
-2.20296e-09
-2.19454e-09
-2.18591e-09
-2.18297e-09
-2.17344e-09
-2.1538e-09
-2.12416e-09
-2.09096e-09
-2.07586e-09
-2.02245e-09
-1.98029e-09
-1.95789e-09
-1.93504e-09
-1.89608e-09
-1.85953e-09
-1.83301e-09
-1.82869e-09
-1.8178e-09
-1.80044e-09
-1.77713e-09
-1.7674e-09
-1.7543e-09
-1.73053e-09
-1.72687e-09
-1.71589e-09
-1.69407e-09
-1.66726e-09
-1.65215e-09
-1.63972e-09
-1.63216e-09
-1.59274e-09
-1.55503e-09
-1.53649e-09
-1.5164e-09
-1.51124e-09
-1.51854e-09
-1.51828e-09
-1.50647e-09
-1.49354e-09
-1.48962e-09
-1.48953e-09
-1.48878e-09
-1.49321e-09
-1.48956e-09
-1.49016e-09
-1.50481e-09
-1.49331e-09
-1.4757e-09
-1.46686e-09
-1.45036e-09
-1.4346e-09
-1.43615e-09
-1.40818e-09
-1.39623e-09
-1.39424e-09
-1.37926e-09
-1.35144e-09
-1.32658e-09
-1.30603e-09
-1.28209e-09
-1.27276e-09
-1.26758e-09
-1.24705e-09
-1.2452e-09
-1.23642e-09
-1.22859e-09
-1.22048e-09
-1.21414e-09
-1.21081e-09
-1.19483e-09
-1.16889e-09
-1.13863e-09
-1.12274e-09
-1.09879e-09
-1.06351e-09
-1.02382e-09
-9.89086e-10
-9.5119e-10
-9.05728e-10
-8.71821e-10
-8.40087e-10
-8.06355e-10
-7.62679e-10
-7.22409e-10
-6.95828e-10
-6.61633e-10
-6.2248e-10
-5.94857e-10
-5.80924e-10
-5.69093e-10
-5.50009e-10
-5.34469e-10
-5.1792e-10
-4.97047e-10
-4.84199e-10
-4.53851e-10
-4.29683e-10
-4.09244e-10
-3.84994e-10
-3.66336e-10
-3.48527e-10
-3.3064e-10
-3.04687e-10
-2.84418e-10
-2.61413e-10
-2.33328e-10
-1.94223e-10
-1.7152e-10
-1.51118e-10
-1.43136e-10
-1.21125e-10
-1.25512e-10
-1.19638e-10
-1.07955e-10
-1.07324e-10
-1.07808e-10
-1.11307e-10
-1.1073e-10
-1.0904e-10
-1.09836e-10
-1.0605e-10
-9.09381e-11
-6.20375e-11
-4.55844e-11
-3.75379e-11
-3.58517e-11
-2.17824e-11
1.93881e-12
3.70223e-12
-2.93902e-09
-2.97127e-09
-2.95453e-09
-2.93185e-09
-2.9294e-09
-2.90845e-09
-2.88887e-09
-2.87266e-09
-2.85417e-09
-2.8245e-09
-2.81779e-09
-2.78836e-09
-2.75935e-09
-2.76073e-09
-2.77084e-09
-2.74433e-09
-2.74313e-09
-2.74361e-09
-2.72512e-09
-2.72208e-09
-2.72152e-09
-2.7169e-09
-2.71252e-09
-2.69724e-09
-2.70286e-09
-2.71057e-09
-2.72122e-09
-2.71451e-09
-2.69907e-09
-2.71917e-09
-2.74308e-09
-2.74184e-09
-2.74546e-09
-2.75371e-09
-2.75947e-09
-2.75736e-09
-2.74909e-09
-2.72872e-09
-2.72137e-09
-2.72134e-09
-2.71193e-09
-2.70965e-09
-2.69349e-09
-2.67363e-09
-2.65553e-09
-2.65004e-09
-2.65656e-09
-2.65573e-09
-2.65241e-09
-2.65033e-09
-2.66136e-09
-2.67487e-09
-2.6609e-09
-2.64116e-09
-2.62384e-09
-2.60548e-09
-2.5869e-09
-2.5439e-09
-2.50684e-09
-2.46194e-09
-2.41253e-09
-2.3861e-09
-2.34608e-09
-2.32556e-09
-2.32152e-09
-2.30347e-09
-2.28908e-09
-2.28186e-09
-2.27367e-09
-2.25159e-09
-2.21936e-09
-2.21158e-09
-2.20504e-09
-2.19051e-09
-2.18332e-09
-2.16639e-09
-2.14405e-09
-2.1198e-09
-2.09761e-09
-2.06603e-09
-2.01641e-09
-1.97636e-09
-1.94139e-09
-1.92454e-09
-1.89277e-09
-1.84701e-09
-1.82545e-09
-1.80879e-09
-1.80732e-09
-1.79751e-09
-1.77483e-09
-1.75689e-09
-1.74713e-09
-1.73484e-09
-1.7281e-09
-1.70984e-09
-1.68996e-09
-1.67009e-09
-1.65253e-09
-1.633e-09
-1.6193e-09
-1.5882e-09
-1.55402e-09
-1.54598e-09
-1.53115e-09
-1.52144e-09
-1.52763e-09
-1.51966e-09
-1.51218e-09
-1.49834e-09
-1.49094e-09
-1.49202e-09
-1.5014e-09
-1.48772e-09
-1.48104e-09
-1.48834e-09
-1.50013e-09
-1.4932e-09
-1.47522e-09
-1.46553e-09
-1.46182e-09
-1.4517e-09
-1.43202e-09
-1.3978e-09
-1.38944e-09
-1.39229e-09
-1.37387e-09
-1.33063e-09
-1.31808e-09
-1.30536e-09
-1.29109e-09
-1.27239e-09
-1.26921e-09
-1.25433e-09
-1.25474e-09
-1.23778e-09
-1.23609e-09
-1.23082e-09
-1.21756e-09
-1.20947e-09
-1.1951e-09
-1.15945e-09
-1.12951e-09
-1.1103e-09
-1.09541e-09
-1.06275e-09
-1.02952e-09
-9.90676e-10
-9.50426e-10
-9.00183e-10
-8.70823e-10
-8.42822e-10
-8.08647e-10
-7.67941e-10
-7.27178e-10
-6.90519e-10
-6.63078e-10
-6.26496e-10
-5.96668e-10
-5.78416e-10
-5.6169e-10
-5.4002e-10
-5.13585e-10
-5.183e-10
-5.03148e-10
-4.86843e-10
-4.61937e-10
-4.36022e-10
-4.14139e-10
-3.87694e-10
-3.72494e-10
-3.4811e-10
-3.23079e-10
-2.92949e-10
-2.70374e-10
-2.65028e-10
-2.37403e-10
-1.95509e-10
-1.70383e-10
-1.46222e-10
-1.47933e-10
-1.3345e-10
-1.31552e-10
-1.25674e-10
-1.12293e-10
-1.15549e-10
-1.10646e-10
-1.1151e-10
-1.06149e-10
-1.00553e-10
-1.06156e-10
-9.78878e-11
-8.18766e-11
-5.37947e-11
-3.96155e-11
-4.28217e-11
-3.81103e-11
-2.64091e-11
2.21625e-13
4.3368e-12
-2.94004e-09
-2.9654e-09
-2.95752e-09
-2.92247e-09
-2.9174e-09
-2.89461e-09
-2.87697e-09
-2.85866e-09
-2.8392e-09
-2.81261e-09
-2.79713e-09
-2.77776e-09
-2.75334e-09
-2.74932e-09
-2.75107e-09
-2.75957e-09
-2.75844e-09
-2.75603e-09
-2.73757e-09
-2.72374e-09
-2.72847e-09
-2.72123e-09
-2.72242e-09
-2.71354e-09
-2.70259e-09
-2.71284e-09
-2.73724e-09
-2.73483e-09
-2.71701e-09
-2.73146e-09
-2.75768e-09
-2.75998e-09
-2.75663e-09
-2.75607e-09
-2.76567e-09
-2.74742e-09
-2.74722e-09
-2.73552e-09
-2.72032e-09
-2.70533e-09
-2.71047e-09
-2.70865e-09
-2.69731e-09
-2.67635e-09
-2.63866e-09
-2.64773e-09
-2.65967e-09
-2.65733e-09
-2.63912e-09
-2.64093e-09
-2.65766e-09
-2.65862e-09
-2.64765e-09
-2.63101e-09
-2.61864e-09
-2.60646e-09
-2.58732e-09
-2.54596e-09
-2.50456e-09
-2.4685e-09
-2.42313e-09
-2.38918e-09
-2.35373e-09
-2.33909e-09
-2.32873e-09
-2.31034e-09
-2.29113e-09
-2.28202e-09
-2.27322e-09
-2.25873e-09
-2.23603e-09
-2.2202e-09
-2.2073e-09
-2.19217e-09
-2.17965e-09
-2.15831e-09