/*--------------------------------*- C++ -*----------------------------------*\
  =========                 |
  \\      /  F ield         | OpenFOAM: The Open Source CFD Toolbox
   \\    /   O peration     | Website:  https://openfoam.org
    \\  /    A nd           | Version:  6
     \\/     M anipulation  |
\*---------------------------------------------------------------------------*/
FoamFile
{
    version     2.0;
    format      ascii;
    class       volVectorField;
    location    "80";
    object      U;
}
// * * * * * * * * * * * * * * * * * * * * * * * * * * * * * * * * * * * * * //

dimensions      [0 1 -1 0 0 0 0];

internalField   nonuniform List<vector> 
4000
(
(400 4.31705e-14 0)
(400 3.5307e-14 0)
(400 2.50269e-14 0)
(400 9.34261e-15 0)
(400 7.59544e-15 0)
(400 1.7597e-14 0)
(400 2.98618e-14 0)
(400 5.47107e-14 0)
(400 7.38063e-14 0)
(400 6.63488e-14 0)
(400 7.90263e-14 0)
(400 8.43055e-14 0)
(400 7.23142e-14 0)
(400 6.5472e-14 0)
(400 7.09011e-14 0)
(400 8.25687e-14 0)
(400 6.8068e-14 0)
(400 2.71629e-14 0)
(400 2.44289e-14 0)
(400 2.7277e-14 0)
(400 2.79204e-14 0)
(400 5.39152e-14 0)
(400 6.7987e-14 0)
(400 4.78823e-14 0)
(400 4.83691e-14 0)
(400 4.22964e-14 0)
(400 3.14709e-14 0)
(400 1.53469e-15 0)
(400 -2.19656e-14 0)
(400 -1.38946e-14 0)
(400 -1.32111e-14 0)
(400 -6.16548e-15 0)
(400 7.81908e-15 0)
(400 9.88362e-15 0)
(400 1.01342e-15 0)
(400 -1.33568e-14 0)
(400 -1.47974e-14 0)
(400 -2.23425e-14 0)
(400 -2.98023e-14 0)
(400 -3.98446e-14 0)
(400 -2.87851e-14 0)
(400 -1.55282e-14 0)
(400 -1.72675e-14 0)
(400 -2.08182e-14 0)
(400 -3.48037e-14 0)
(400 -4.21868e-14 0)
(400 -3.88032e-14 0)
(400 -2.28336e-14 0)
(400 -1.93578e-14 0)
(400 -8.91883e-15 0)
(400 -1.81864e-15 0)
(400 1.42614e-14 0)
(400 1.06167e-14 0)
(400 -1.78246e-17 0)
(400 5.29195e-15 0)
(400 2.01791e-14 0)
(400 1.86875e-14 0)
(400 1.62126e-14 0)
(400 2.28476e-14 0)
(400 1.76785e-14 0)
(400 1.68649e-14 0)
(400 1.09439e-14 0)
(400 1.0908e-15 0)
(400 -5.10573e-15 0)
(400 -8.37676e-15 0)
(400 3.01409e-16 0)
(400 1.92942e-14 0)
(400 3.93001e-14 0)
(400 6.12701e-14 0)
(400 7.96124e-14 0)
(400 9.37269e-14 0)
(400 9.22969e-14 0)
(400 7.82667e-14 0)
(400 6.33357e-14 0)
(400 4.70632e-14 0)
(400 3.46499e-14 0)
(400 1.8234e-14 0)
(400 4.1493e-15 0)
(400 -1.4048e-15 0)
(400 -8.67698e-15 0)
(400 -4.17234e-15 0)
(400 -3.9669e-15 0)
(400 -6.13606e-15 0)
(400 3.90918e-15 0)
(400 -3.41032e-15 0)
(400 -1.56358e-14 0)
(400 -2.0848e-14 0)
(400 -1.57377e-14 0)
(400 -2.20421e-14 0)
(400 -4.32058e-14 0)
(400 -3.08973e-14 0)
(400 -7.23849e-15 0)
(400 1.44948e-14 0)
(400 1.96795e-14 0)
(400 3.75674e-14 0)
(400 5.43788e-14 0)
(400 3.96346e-14 0)
(400 4.1318e-14 0)
(400 4.1455e-14 0)
(400 5.12765e-14 0)
(400 5.37206e-14 0)
(400 3.40219e-14 0)
(400 3.20671e-14 0)
(400 2.90263e-14 0)
(400 5.84743e-15 0)
(400 -1.41419e-14 0)
(400 -1.01381e-14 0)
(400 5.98396e-15 0)
(400 7.42838e-15 0)
(400 -1.17277e-14 0)
(400 -1.68367e-15 0)
(400 1.39178e-14 0)
(400 1.16393e-15 0)
(400 7.30935e-16 0)
(400 8.74745e-15 0)
(400 1.84567e-14 0)
(400 1.76664e-14 0)
(400 1.71897e-15 0)
(400 -5.27193e-15 0)
(400 -2.98012e-15 0)
(400 -1.66156e-14 0)
(400 -2.247e-14 0)
(400 -1.52185e-14 0)
(400 -2.37465e-14 0)
(400 -1.69617e-14 0)
(400 -1.34269e-14 0)
(400 -2.19884e-14 0)
(400 -2.12177e-14 0)
(400 -4.22744e-14 0)
(400 -4.04917e-14 0)
(400 -2.695e-14 0)
(400 -2.66606e-14 0)
(400 -3.71328e-14 0)
(400 -1.61391e-14 0)
(400 4.81822e-15 0)
(400 9.11803e-15 0)
(400 1.91297e-14 0)
(400 4.40854e-14 0)
(400 4.12773e-14 0)
(400 2.87544e-14 0)
(400 2.54765e-14 0)
(400 1.51171e-14 0)
(400 2.96941e-14 0)
(400 4.85309e-14 0)
(400 5.21838e-14 0)
(400 6.45853e-14 0)
(400 8.31342e-14 0)
(400 7.93152e-14 0)
(400 8.15142e-14 0)
(400 7.90894e-14 0)
(400 7.36897e-14 0)
(400 6.68997e-14 0)
(400 5.91293e-14 0)
(400 4.89553e-14 0)
(400 3.77876e-14 0)
(400 1.32239e-14 0)
(400 7.41103e-16 0)
(400 -1.16571e-14 0)
(400 -2.20056e-14 0)
(400 -2.742e-14 0)
(400 -2.41226e-14 0)
(400 -6.61019e-15 0)
(400 -4.8176e-15 0)
(400 -1.25915e-14 0)
(400 -6.30115e-15 0)
(400 2.61584e-14 0)
(400 2.75176e-14 0)
(400 2.57085e-14 0)
(400 3.43447e-14 0)
(400 3.70656e-14 0)
(400 2.8554e-14 0)
(400 2.63978e-14 0)
(400 2.2974e-14 0)
(400 2.09661e-14 0)
(400 2.04281e-14 0)
(400 2.18204e-14 0)
(400 2.27856e-14 0)
(400 4.31528e-14 0)
(400 3.51104e-14 0)
(400 2.22804e-15 0)
(400 -4.15023e-15 0)
(400 4.94036e-15 0)
(400 1.00014e-14 0)
(400 8.37909e-15 0)
(400 4.52861e-15 0)
(400 -1.75526e-15 0)
(400 -4.10511e-15 0)
(400 6.11174e-15 0)
(400 1.22277e-14 0)
(400 1.05099e-14 0)
(400 2.1954e-14 0)
(400 3.48325e-14 0)
(400 4.16376e-14 0)
(400 4.12622e-14 0)
(400 3.35185e-14 0)
(400 2.43472e-14 0)
(400 1.85759e-14 0)
(400 1.40143e-14 0)
(400 8.87635e-15 0)
(400 -4.51221e-15 0)
(400 3.12487e-15 0)
(400 -9.58273e-15 0)
(400 -5.55549e-15 0)
(400 -4.49617e-16 0)
(400 -3.61392e-15 0)
(400 1.65142e-14 0)
(400 2.64995e-14 0)
(400 2.92528e-14 0)
(400 4.33118e-14 0)
(400 4.28008e-14 0)
(400 4.43932e-14 0)
(400 5.05922e-14 0)
(400 5.95269e-14 0)
(400 7.49215e-14 0)
(400 1.00103e-13 0)
(400 1.08866e-13 0)
(400 1.03941e-13 0)
(400 9.41048e-14 0)
(400 8.39619e-14 0)
(400 9.32179e-14 0)
(400 9.21184e-14 0)
(400 9.65946e-14 0)
(400 8.1358e-14 0)
(400 7.16083e-14 0)
(400 6.65586e-14 0)
(400 5.6767e-14 0)
(400 4.15268e-14 0)
(400 1.83106e-14 0)
(400 -3.16707e-15 0)
(400 -8.1525e-15 0)
(400 2.95819e-15 0)
(400 3.01839e-14 0)
(400 2.92972e-14 0)
(400 4.79916e-16 0)
(400 -1.39371e-14 0)
(400 2.74589e-15 0)
(400 2.01604e-14 0)
(400 1.53706e-14 0)
(400 6.03774e-15 0)
(400 -9.04237e-15 0)
(400 -3.18054e-15 0)
(400 -5.04281e-15 0)
(400 -1.05945e-14 0)
(400 -6.53573e-15 0)
(400 -3.96155e-15 0)
(400 3.68988e-15 0)
(400 5.37671e-15 0)
(400 2.35638e-14 0)
(400 3.48361e-14 0)
(400 3.66777e-14 0)
(400 4.83427e-14 0)
(400 4.67162e-14 0)
(400 3.89981e-14 0)
(400 1.87769e-14 0)
(400 6.54378e-15 0)
(400 1.73914e-15 0)
(400 7.61427e-15 0)
(400 2.41071e-14 0)
(400 3.67813e-14 0)
(400 2.51518e-14 0)
(400 1.13889e-14 0)
(400 1.04621e-14 0)
(400 -6.13234e-16 0)
(400 -8.40394e-15 0)
(400 -5.02671e-15 0)
(400 -4.40555e-15 0)
(400 -8.03172e-15 0)
(400 -3.7092e-15 0)
(400 2.10863e-14 0)
(400 4.86668e-14 0)
(400 5.06519e-14 0)
(400 4.98152e-14 0)
(400 3.94261e-14 0)
(400 9.79475e-15 0)
(400 -1.15925e-14 0)
(400 -3.77795e-14 0)
(400 -4.69194e-14 0)
(400 -4.72217e-14 0)
(400 -5.19928e-14 0)
(400 -5.99256e-14 0)
(400 -4.7258e-14 0)
(400 -3.55574e-14 0)
(400 -4.1157e-14 0)
(400 -2.91595e-14 0)
(400 -3.08933e-14 0)
(400 -2.97277e-14 0)
(400 -2.80998e-14 0)
(400 -3.27946e-14 0)
(400 -2.71351e-14 0)
(400 -3.61458e-14 0)
(400 -2.12069e-14 0)
(400 3.0598e-14 0)
(400 6.18236e-14 0)
(400 8.54889e-14 0)
(400 9.80822e-14 0)
(400 1.07365e-13 0)
(400 9.53101e-14 0)
(400 8.65018e-14 0)
(400 9.94007e-14 0)
(400 1.05944e-13 0)
(400 1.06352e-13 0)
(400 1.072e-13 0)
(400 8.83407e-14 0)
(400 1.06876e-13 0)
(400 9.48131e-14 0)
(400 6.86082e-14 0)
(400 5.04883e-14 0)
(400 5.97356e-14 0)
(400 7.33053e-14 0)
(400 7.37488e-14 0)
(400 7.18442e-14 0)
(400 8.24859e-14 0)
(400 8.90265e-14 0)
(400 9.06473e-14 0)
(400 7.5369e-14 0)
(400 7.25659e-14 0)
(400 7.56953e-14 0)
(400 8.21433e-14 0)
(400 7.63885e-14 0)
(400 6.99069e-14 0)
(400 6.77207e-14 0)
(400 6.08913e-14 0)
(400 5.41392e-14 0)
(400 3.5974e-14 0)
(400 2.03173e-14 0)
(400 4.76591e-15 0)
(400 -1.66256e-15 0)
(400 -4.26991e-15 0)
(400 6.6519e-15 0)
(400 1.94164e-14 0)
(400 1.71759e-14 0)
(400 1.89147e-14 0)
(400 -4.53447e-16 0)
(400 4.59339e-15 0)
(400 1.37118e-14 0)
(400 2.63334e-14 0)
(400 2.47979e-14 0)
(400 1.34842e-14 0)
(400 1.35751e-15 0)
(400 -8.10874e-15 0)
(400 -2.33791e-15 0)
(400 -1.38675e-14 0)
(400 -1.1402e-14 0)
(400 2.14513e-14 0)
(400 3.67669e-14 0)
(400 4.54049e-14 0)
(400 5.42774e-14 0)
(400 5.0151e-14 0)
(400 4.16474e-14 0)
(400 3.9327e-14 0)
(400 2.26976e-15 0)
(400 1.06485e-15 0)
(400 2.75262e-15 0)
(400 8.77499e-15 0)
(400 1.32566e-14 0)
(400 -6.02194e-16 0)
(400 -1.26559e-14 0)
(400 -4.98467e-15 0)
(400 -7.47325e-16 0)
(400 1.02186e-14 0)
(400 1.0754e-14 0)
(400 1.17701e-14 0)
(400 1.76188e-14 0)
(400 1.49814e-14 0)
(400 -1.28346e-14 0)
(400 -4.37113e-14 0)
(400 -6.66559e-14 0)
(400 -8.08454e-14 0)
(400 -7.31995e-14 0)
(400 -7.20137e-14 0)
(400 -7.623e-14 0)
(400 -9.48091e-14 0)
(400 -9.52785e-14 0)
(400 -9.57139e-14 0)
(400 -9.14487e-14 0)
(400 -7.78073e-14 0)
(400 -7.57064e-14 0)
(400 -8.6268e-14 0)
(400 -9.51627e-14 0)
(400 -1.09189e-13 0)
(400 -1.13934e-13 0)
(400 -1.05156e-13 0)
(400 -8.03056e-14 0)
(400 -5.42709e-14 0)
(400 -4.66437e-14 0)
(400 -3.61704e-14 0)
(400 -1.89822e-14 0)
(400 -1.8575e-14 0)
(400 -3.24959e-15 0)
(400 -3.20117e-15 0)
(400 1.11418e-14 0)
(400 3.10219e-14 0)
(400 3.89965e-14 0)
(400 4.72034e-14 0)
(400 4.70955e-14 0)
(400 7.52019e-14 0)
(400 8.75592e-14 0)
(400 9.66791e-14 0)
(400 9.56332e-14 0)
(400 8.84534e-14 0)
(400 -2.16308e-14 0)
(400 -3.3599e-14 0)
(400 -2.6373e-14 0)
(400 -9.46684e-15 0)
(400 -4.16144e-16 0)
(400 1.47791e-14 0)
(400 2.55561e-14 0)
(400 3.06225e-14 0)
(400 4.74659e-14 0)
(400 6.4066e-14 0)
(400 6.04528e-14 0)
(400 6.81342e-14 0)
(400 6.84364e-14 0)
(400 8.15599e-14 0)
(400 9.88234e-14 0)
(400 1.01915e-13 0)
(400 9.64957e-14 0)
(400 9.82273e-14 0)
(400 8.54627e-14 0)
(400 6.46158e-14 0)
(400 5.6031e-14 0)
(400 2.91091e-14 0)
(400 7.18647e-15 0)
(400 3.10553e-14 0)
(400 2.48033e-14 0)
(400 2.7341e-14 0)
(400 2.29495e-14 0)
(400 7.97953e-15 0)
(400 -5.6069e-15 0)
(400 -2.07625e-14 0)
(400 -6.2866e-15 0)
(400 -1.93121e-15 0)
(400 -4.5433e-15 0)
(400 1.22978e-14 0)
(400 1.70777e-14 0)
(400 2.43619e-14 0)
(400 1.91012e-14 0)
(400 8.25289e-15 0)
(400 -7.56095e-15 0)
(400 -1.96819e-14 0)
(400 -2.43504e-14 0)
(400 -2.62553e-14 0)
(400 -3.81267e-14 0)
(400 -2.62315e-14 0)
(400 -7.9183e-15 0)
(400 2.1223e-14 0)
(400 3.38904e-14 0)
(400 2.94497e-14 0)
(400 3.15853e-14 0)
(400 2.85435e-14 0)
(400 4.42583e-14 0)
(400 4.96618e-14 0)
(400 4.14881e-14 0)
(400 1.66282e-14 0)
(400 3.25612e-15 0)
(400 7.71535e-15 0)
(400 1.88517e-14 0)
(400 3.96144e-14 0)
(400 4.81337e-14 0)
(400 5.61905e-14 0)
(400 5.72359e-14 0)
(400 5.64573e-14 0)
(400 5.741e-14 0)
(400 5.77511e-14 0)
(400 5.1915e-14 0)
(400 2.45552e-14 0)
(400 1.2827e-14 0)
(400 1.57358e-14 0)
(400 3.16055e-14 0)
(400 4.21373e-14 0)
(400 4.0328e-14 0)
(400 2.67915e-14 0)
(400 1.41145e-14 0)
(400 -6.07363e-15 0)
(400 -1.51446e-14 0)
(400 -2.36851e-14 0)
(400 -2.54824e-14 0)
(400 -1.64577e-14 0)
(400 -1.22149e-14 0)
(400 1.38259e-15 0)
(400 1.83132e-14 0)
(400 1.33987e-14 0)
(400 1.19014e-14 0)
(400 1.7679e-14 0)
(400 2.679e-14 0)
(400 4.06104e-14 0)
(400 4.50108e-14 0)
(400 4.30726e-14 0)
(400 3.77835e-14 0)
(400 4.17706e-14 0)
(400 3.68474e-14 0)
(400 4.58087e-14 0)
(400 4.3856e-14 0)
(400 5.8926e-14 0)
(400 5.68244e-14 0)
(400 5.40327e-14 0)
(400 4.46757e-14 0)
(400 2.83714e-14 0)
(400 3.64917e-14 0)
(400 3.77092e-14 0)
(400 4.57075e-14 0)
(400 5.44931e-14 0)
(400 5.05912e-14 0)
(400 4.19057e-14 0)
(400 2.98047e-14 0)
(400 2.64499e-14 0)
(400 6.58454e-15 0)
(400 9.80219e-15 0)
(400 1.36895e-14 0)
(400 1.77995e-14 0)
(400 1.15645e-14 0)
(400 1.62086e-14 0)
(400 3.13942e-14 0)
(400 3.63705e-14 0)
(400 1.86172e-14 0)
(400 5.17434e-15 0)
(400 7.66212e-15 0)
(400 1.57494e-14 0)
(400 1.04104e-15 0)
(400 -7.19307e-15 0)
(400 -6.93603e-15 0)
(400 -1.36965e-14 0)
(400 -1.60292e-14 0)
(400 -9.75436e-15 0)
(400 -2.62724e-14 0)
(400 -3.62605e-14 0)
(400 -2.7912e-14 0)
(400 -1.65272e-14 0)
(400 7.42228e-15 0)
(400 2.29447e-14 0)
(400 3.1415e-14 0)
(400 4.72283e-14 0)
(400 6.29905e-14 0)
(400 4.4627e-14 0)
(400 3.781e-14 0)
(400 4.74367e-14 0)
(400 5.0879e-14 0)
(400 1.74037e-14 0)
(400 8.96538e-15 0)
(400 1.63445e-14 0)
(400 6.88408e-15 0)
(400 1.0019e-14 0)
(400 2.05097e-14 0)
(400 4.24301e-14 0)
(400 5.83013e-14 0)
(400 5.47004e-14 0)
(400 4.97047e-14 0)
(400 4.94917e-14 0)
(400 4.97772e-14 0)
(400 5.95116e-14 0)
(400 5.16432e-14 0)
(400 5.43049e-14 0)
(400 5.20481e-14 0)
(400 4.67008e-14 0)
(400 3.98051e-14 0)
(400 3.62846e-14 0)
(400 2.77134e-14 0)
(400 3.5637e-14 0)
(400 3.29707e-14 0)
(400 3.11949e-14 0)
(400 3.94662e-14 0)
(400 5.33293e-14 0)
(400 7.83031e-14 0)
(400 9.99777e-14 0)
(400 9.74378e-14 0)
(400 6.19947e-14 0)
(400 4.15089e-14 0)
(400 4.09568e-14 0)
(400 3.96453e-14 0)
(400 3.82753e-14 0)
(400 4.27502e-14 0)
(400 2.51613e-14 0)
(400 2.57498e-14 0)
(400 2.76408e-14 0)
(400 1.93822e-14 0)
(400 1.69263e-14 0)
(400 1.99539e-14 0)
(400 2.60442e-15 0)
(400 2.98079e-16 0)
(400 1.99902e-14 0)
(400 1.71949e-14 0)
(400 7.16633e-15 0)
(400 3.23273e-14 0)
(400 5.52664e-14 0)
(400 6.34277e-14 0)
(400 4.91603e-14 0)
(400 3.13185e-14 0)
(400 7.98666e-15 0)
(400 1.56329e-14 0)
(400 1.46394e-14 0)
(400 -1.1002e-14 0)
(400 -1.65422e-14 0)
(400 -2.75206e-14 0)
(400 -3.54022e-14 0)
(400 -2.68854e-14 0)
(400 -1.45973e-14 0)
(400 -2.82165e-15 0)
(400 1.60109e-16 0)
(400 -3.78918e-15 0)
(400 -1.53757e-14 0)
(400 -6.21587e-15 0)
(400 -1.50333e-14 0)
(400 -5.32719e-15 0)
(400 1.64315e-14 0)
(400 1.94616e-14 0)
(400 7.57098e-15 0)
(400 9.96648e-15 0)
(400 2.0217e-14 0)
(400 2.77067e-14 0)
(400 4.46307e-14 0)
(400 5.82408e-14 0)
(400 6.15367e-14 0)
(400 6.38212e-14 0)
(400 8.24121e-14 0)
(400 9.47266e-14 0)
(400 9.75975e-14 0)
(400 9.0265e-14 0)
(400 8.87201e-14 0)
(400 7.86403e-14 0)
(400 7.31157e-14 0)
(400 5.97518e-14 0)
(400 3.92142e-14 0)
(400 2.5817e-14 0)
(400 2.68023e-14 0)
(400 2.20942e-14 0)
(400 2.9332e-14 0)
(400 2.71876e-14 0)
(400 1.64087e-14 0)
(400 1.26224e-15 0)
(400 -1.01216e-14 0)
(400 -7.93837e-15 0)
(400 -1.54286e-14 0)
(400 -2.79915e-15 0)
(400 1.22716e-14 0)
(400 2.22066e-14 0)
(400 7.42691e-15 0)
(400 -1.28357e-14 0)
(400 -1.48568e-14 0)
(400 -1.95113e-14 0)
(400 -1.17607e-14 0)
(400 -1.34737e-14 0)
(400 -9.62675e-15 0)
(400 8.53616e-17 0)
(400 -1.92503e-15 0)
(400 2.46081e-14 0)
(400 4.01018e-14 0)
(400 3.7187e-14 0)
(400 2.73315e-14 0)
(400 2.38869e-14 0)
(400 3.5303e-14 0)
(400 3.97109e-14 0)
(400 3.22879e-14 0)
(400 1.72319e-14 0)
(400 4.60433e-15 0)
(400 3.01903e-17 0)
(400 6.57549e-15 0)
(400 1.84407e-14 0)
(400 3.21041e-14 0)
(400 3.71702e-14 0)
(400 4.52685e-14 0)
(400 5.17088e-14 0)
(400 5.03397e-14 0)
(400 5.19463e-14 0)
(400 5.35633e-14 0)
(400 3.90604e-14 0)
(400 2.47913e-14 0)
(400 1.99724e-14 0)
(400 2.5358e-14 0)
(400 3.80048e-14 0)
(400 1.90938e-14 0)
(400 6.53418e-15 0)
(400 -6.57411e-15 0)
(400 -1.42358e-14 0)
(400 -2.34412e-14 0)
(400 -3.76445e-14 0)
(400 -4.12207e-14 0)
(400 -3.55205e-14 0)
(400 -1.58866e-14 0)
(400 -1.95892e-15 0)
(400 7.89177e-15 0)
(400 1.98554e-14 0)
(400 3.05168e-14 0)
(400 4.18689e-14 0)
(400 4.22237e-14 0)
(400 4.56878e-14 0)
(400 4.48243e-14 0)
(400 4.68121e-14 0)
(400 6.16176e-14 0)
(400 6.68046e-14 0)
(400 7.38415e-14 0)
(400 6.29076e-14 0)
(400 3.74829e-14 0)
(400 3.12622e-14 0)
(400 1.37792e-14 0)
(400 8.78084e-15 0)
(400 9.19766e-15 0)
(400 1.39238e-14 0)
(400 1.54689e-14 0)
(400 1.39253e-14 0)
(400 2.01331e-14 0)
(400 3.06605e-14 0)
(400 4.11433e-14 0)
(400 6.17096e-14 0)
(400 5.97775e-14 0)
(400 5.9257e-14 0)
(400 7.23552e-14 0)
(400 7.27744e-14 0)
(400 8.50386e-14 0)
(400 8.99992e-14 0)
(400 7.57204e-14 0)
(400 6.24572e-14 0)
(400 6.51367e-14 0)
(400 7.33664e-14 0)
(400 5.30361e-14 0)
(400 3.44205e-14 0)
(400 2.27626e-14 0)
(400 2.56131e-14 0)
(400 1.53573e-14 0)
(400 3.0509e-14 0)
(400 2.79457e-14 0)
(400 3.33369e-14 0)
(400 2.26175e-14 0)
(400 3.65472e-14 0)
(400 5.97394e-14 0)
(400 5.86648e-14 0)
(400 5.11012e-14 0)
(400 4.68817e-14 0)
(400 5.32432e-14 0)
(400 4.91945e-14 0)
(400 4.88832e-14 0)
(400 6.45173e-14 0)
(400 6.78443e-14 0)
(400 6.75905e-14 0)
(400 5.10422e-14 0)
(400 4.50991e-14 0)
(400 3.50283e-14 0)
(400 2.22905e-14 0)
(400 4.45189e-15 0)
(400 4.82654e-15 0)
(400 6.66296e-15 0)
(400 -1.47207e-14 0)
(400 -8.00692e-15 0)
(400 1.615e-15 0)
(400 5.99714e-15 0)
(400 2.25994e-14 0)
(400 1.19719e-14 0)
(400 -9.28551e-15 0)
(400 -2.39001e-14 0)
(400 -1.2181e-14 0)
(400 7.84875e-15 0)
(400 2.48992e-14 0)
(400 2.34295e-14 0)
(400 3.9701e-14 0)
(400 4.98067e-14 0)
(400 3.33252e-14 0)
(400 3.32095e-14 0)
(400 3.20935e-14 0)
(400 2.67307e-15 0)
(400 -4.82522e-15 0)
(400 -1.52124e-14 0)
(400 -8.19535e-15 0)
(400 9.72401e-15 0)
(400 2.16514e-14 0)
(400 4.32716e-14 0)
(400 5.50694e-14 0)
(400 4.12952e-14 0)
(400 2.90853e-14 0)
(400 2.68248e-14 0)
(400 1.32521e-14 0)
(400 -1.02523e-14 0)
(400 -7.30418e-15 0)
(400 -6.79133e-15 0)
(400 -1.0011e-14 0)
(400 -2.7587e-14 0)
(400 -4.83305e-14 0)
(400 -5.97626e-14 0)
(400 -6.96244e-14 0)
(400 -8.07023e-14 0)
(400 -8.3645e-14 0)
(400 -8.17324e-14 0)
(400 -6.49308e-14 0)
(400 -5.51858e-14 0)
(400 -5.02183e-14 0)
(400 -4.58682e-14 0)
(400 -5.28563e-14 0)
(400 -4.19427e-14 0)
(400 -3.04265e-14 0)
(400 -2.05284e-14 0)
(400 -2.38876e-14 0)
(400 -1.49222e-14 0)
(400 -1.1633e-14 0)
(400 -1.14396e-14 0)
(400 -2.41871e-14 0)
(400 -2.73261e-14 0)
(400 -2.60622e-14 0)
(400 -1.92822e-14 0)
(400 -6.11971e-15 0)
(400 -1.10684e-14 0)
(400 1.27727e-15 0)
(400 -4.40609e-15 0)
(400 4.5048e-15 0)
(400 9.46849e-15 0)
(400 1.53764e-14 0)
(400 1.96286e-14 0)
(400 2.27692e-14 0)
(400 1.54203e-14 0)
(400 1.18598e-14 0)
(400 2.37778e-14 0)
(400 3.12667e-14 0)
(400 3.89428e-14 0)
(400 4.24781e-14 0)
(400 3.93655e-14 0)
(400 5.25353e-14 0)
(400 5.6057e-14 0)
(400 5.33392e-14 0)
(400 3.89333e-14 0)
(400 4.40391e-14 0)
(400 4.67665e-14 0)
(400 3.9139e-14 0)
(400 4.03039e-14 0)
(400 2.39795e-14 0)
(400 1.79676e-14 0)
(400 6.47632e-15 0)
(400 -7.88441e-15 0)
(400 -1.66248e-15 0)
(400 -5.55419e-15 0)
(400 -1.3136e-14 0)
(400 3.81121e-15 0)
(400 8.53711e-15 0)
(400 -8.22704e-15 0)
(400 -3.07285e-14 0)
(400 -2.95924e-14 0)
(400 -1.57621e-14 0)
(400 -1.63517e-14 0)
(400 -2.53542e-15 0)
(400 1.5882e-15 0)
(400 -4.93523e-15 0)
(400 -5.83436e-15 0)
(400 -1.63785e-15 0)
(400 1.20683e-14 0)
(400 1.47325e-14 0)
(400 1.71722e-14 0)
(400 4.05577e-14 0)
(400 5.62482e-14 0)
(400 6.62457e-14 0)
(400 6.56058e-14 0)
(400 5.38354e-14 0)
(400 4.98532e-14 0)
(400 4.89504e-14 0)
(400 5.04037e-14 0)
(400 5.37767e-14 0)
(400 4.41629e-14 0)
(400 3.33562e-14 0)
(400 3.94143e-14 0)
(400 4.55487e-14 0)
(400 5.73249e-14 0)
(400 7.40042e-14 0)
(400 6.79873e-14 0)
(400 4.64819e-14 0)
(400 3.3655e-14 0)
(400 3.27484e-14 0)
(400 4.63511e-14 0)
(400 4.34335e-14 0)
(400 3.66912e-14 0)
(400 2.26404e-14 0)
(400 2.35452e-14 0)
(400 1.7041e-14 0)
(400 2.24542e-14 0)
(400 1.90875e-14 0)
(400 1.61902e-14 0)
(400 1.69706e-14 0)
(400 2.10768e-14 0)
(400 1.56496e-14 0)
(400 5.09974e-15 0)
(400 -5.56163e-15 0)
(400 1.04234e-14 0)
(400 2.40439e-14 0)
(400 2.67602e-14 0)
(400 3.35552e-14 0)
(400 3.45296e-14 0)
(400 2.0517e-14 0)
(400 2.88565e-14 0)
(400 4.34072e-14 0)
(400 5.10078e-14 0)
(400 5.47915e-14 0)
(400 4.15584e-14 0)
(400 2.6859e-14 0)
(400 3.4455e-14 0)
(400 5.75329e-14 0)
(400 5.3828e-14 0)
(400 4.04941e-14 0)
(400 1.87038e-14 0)
(400 1.83525e-14 0)
(400 -7.89534e-15 0)
(400 -1.64657e-14 0)
(400 -3.37525e-14 0)
(400 -2.57891e-14 0)
(400 -8.60255e-15 0)
(400 -1.7094e-14 0)
(400 2.39443e-15 0)
(400 3.37183e-14 0)
(400 6.66944e-14 0)
(400 8.58433e-14 0)
(400 8.67583e-14 0)
(400 9.02242e-14 0)
(400 9.84092e-14 0)
(400 1.04335e-13 0)
(400 8.20067e-14 0)
(400 6.28009e-14 0)
(400 5.39821e-14 0)
(400 4.54767e-14 0)
(400 1.60421e-14 0)
(400 -4.38064e-15 0)
(400 -2.28965e-14 0)
(400 -3.04029e-14 0)
(400 -4.26118e-14 0)
(400 -3.79797e-14 0)
(400 -4.58901e-14 0)
(400 -2.84552e-14 0)
(400 -2.17203e-14 0)
(400 -1.29913e-14 0)
(400 6.49997e-16 0)
(400 2.54359e-14 0)
(400 4.07084e-14 0)
(400 4.5438e-14 0)
(400 4.5975e-14 0)
(400 4.95022e-14 0)
(400 5.39613e-14 0)
(400 4.14585e-14 0)
(400 2.52243e-14 0)
(400 4.04861e-14 0)
(400 4.68173e-14 0)
(400 2.46144e-14 0)
(400 2.27844e-14 0)
(400 1.62131e-14 0)
(400 7.03277e-15 0)
(400 -1.14573e-14 0)
(400 -1.89466e-14 0)
(400 -2.10132e-14 0)
(400 -2.75191e-14 0)
(400 -1.6883e-14 0)
(400 1.48341e-15 0)
(400 8.11964e-15 0)
(400 1.99964e-14 0)
(400 5.16354e-14 0)
(400 5.29254e-14 0)
(400 4.29899e-14 0)
(400 4.1808e-14 0)
(400 4.58423e-14 0)
(400 5.31575e-14 0)
(400 7.46378e-14 0)
(400 8.06947e-14 0)
(400 8.92335e-14 0)
(400 9.97801e-14 0)
(400 9.55439e-14 0)
(400 9.04133e-14 0)
(400 8.89344e-14 0)
(400 6.18481e-14 0)
(400 6.03606e-14 0)
(400 6.20159e-14 0)
(400 7.38183e-14 0)
(400 7.42103e-14 0)
(400 7.22066e-14 0)
(400 7.06694e-14 0)
(400 6.4082e-14 0)
(400 5.37895e-14 0)
(400 4.52008e-14 0)
(400 3.57998e-14 0)
(400 1.93207e-14 0)
(400 1.49826e-14 0)
(400 2.14756e-14 0)
(400 2.64596e-14 0)
(400 1.38076e-14 0)
(400 -9.83721e-15 0)
(400 -1.78238e-14 0)
(400 -3.02459e-14 0)
(400 -4.51929e-14 0)
(400 -5.14746e-14 0)
(400 -6.63729e-14 0)
(400 -8.83774e-14 0)
(400 -7.72844e-14 0)
(400 -8.20554e-14 0)
(400 -1.07755e-13 0)
(400 -1.20047e-13 0)
(400 -1.28937e-13 0)
(400 -1.05306e-13 0)
(400 -8.17997e-14 0)
(400 -6.17821e-14 0)
(400 -6.38492e-14 0)
(400 -5.59776e-14 0)
(400 -4.12043e-14 0)
(400 -4.99979e-14 0)
(400 -4.18457e-14 0)
(400 -3.37713e-14 0)
(400 -4.21795e-14 0)
(400 -3.44562e-14 0)
(400 -2.59422e-14 0)
(400 -2.38131e-14 0)
(400 -1.01387e-14 0)
(400 -3.87784e-15 0)
(400 9.39265e-15 0)
(400 2.00198e-14 0)
(400 2.03411e-14 0)
(400 1.53949e-14 0)
(400 1.90326e-14 0)
(400 2.96331e-14 0)
(400 3.36726e-14 0)
(400 3.44278e-14 0)
(400 4.31212e-14 0)
(400 4.84156e-14 0)
(400 4.45981e-14 0)
(400 4.20112e-14 0)
(400 3.97244e-14 0)
(400 2.76403e-14 0)
(400 1.85341e-14 0)
(400 2.04842e-14 0)
(400 3.29332e-14 0)
(400 3.72045e-14 0)
(400 2.34515e-14 0)
(400 -9.31818e-15 0)
(400 -2.3597e-14 0)
(400 -2.39181e-14 0)
(400 -1.70861e-14 0)
(400 -1.74569e-14 0)
(400 -1.86169e-14 0)
(400 -2.28417e-14 0)
(400 -3.96501e-14 0)
(400 -2.34439e-14 0)
(400 4.90382e-16 0)
(400 -9.60148e-15 0)
(400 -2.69015e-14 0)
(400 -3.47909e-14 0)
(400 -3.1292e-14 0)
(400 -1.53761e-14 0)
(400 -4.85879e-15 0)
(400 7.59694e-15 0)
(400 3.6622e-15 0)
(400 1.98629e-15 0)
(400 1.23775e-15 0)
(400 -1.87232e-14 0)
(400 -7.41196e-15 0)
(400 1.01328e-14 0)
(400 2.99397e-14 0)
(400 5.34364e-14 0)
(400 3.70288e-14 0)
(400 4.26235e-14 0)
(400 4.88163e-14 0)
(400 4.82493e-14 0)
(400 3.36642e-14 0)
(400 2.56935e-14 0)
(400 3.54704e-14 0)
(400 2.94315e-14 0)
(400 4.15942e-14 0)
(400 5.01671e-14 0)
(400 5.83917e-14 0)
(400 7.76381e-14 0)
(400 9.44105e-14 0)
(400 7.45302e-14 0)
(400 4.00612e-14 0)
(400 2.42625e-14 0)
(400 1.77544e-14 0)
(400 2.314e-14 0)
(400 2.07421e-14 0)
(400 2.63973e-14 0)
(400 4.24601e-14 0)
(400 2.76143e-14 0)
(400 1.14201e-14 0)
(400 1.90252e-14 0)
(400 1.12701e-14 0)
(400 1.75528e-14 0)
(400 1.57187e-14 0)
(400 1.95213e-14 0)
(400 1.91858e-14 0)
(400 1.65496e-14 0)
(400 4.0173e-14 0)
(400 6.56993e-14 0)
(400 5.67341e-14 0)
(400 5.20623e-14 0)
(400 5.0632e-14 0)
(400 5.01312e-14 0)
(400 5.5343e-14 0)
(400 5.88551e-14 0)
(400 6.6257e-14 0)
(400 7.28029e-14 0)
(400 7.87841e-14 0)
(400 8.52397e-14 0)
(400 6.37426e-14 0)
(400 5.54613e-14 0)
(400 5.76287e-14 0)
(400 6.05403e-14 0)
(400 5.50691e-14 0)
(400 3.95337e-14 0)
(400 2.94043e-14 0)
(400 1.16115e-14 0)
(400 -8.74827e-16 0)
(400 -3.32938e-14 0)
(400 -3.81886e-14 0)
(400 -1.77159e-14 0)
(400 -2.3531e-14 0)
(400 6.99442e-16 0)
(400 3.28014e-14 0)
(400 6.11841e-14 0)
(400 8.03168e-14 0)
(400 8.00281e-14 0)
(400 9.52438e-14 0)
(400 1.14434e-13 0)
(400 1.17936e-13 0)
(400 8.44893e-14 0)
(400 5.46961e-14 0)
(400 5.06571e-14 0)
(400 4.55232e-14 0)
(400 1.10966e-14 0)
(400 -1.98905e-14 0)
(400 -1.75755e-14 0)
(400 -1.34422e-14 0)
(400 -9.19528e-15 0)
(400 -4.08093e-15 0)
(400 6.73749e-15 0)
(400 -5.25412e-15 0)
(400 4.05933e-15 0)
(400 6.63119e-15 0)
(400 3.12913e-14 0)
(400 4.47262e-14 0)
(400 3.90933e-14 0)
(400 4.55612e-14 0)
(400 5.29523e-14 0)
(400 6.41167e-14 0)
(400 7.15973e-14 0)
(400 5.36547e-14 0)
(400 4.15688e-14 0)
(400 4.30735e-14 0)
(400 5.16722e-14 0)
(400 4.87681e-14 0)
(400 3.58314e-14 0)
(400 1.00373e-14 0)
(400 -1.62771e-14 0)
(400 -2.2223e-14 0)
(400 -1.47195e-14 0)
(400 -2.10583e-14 0)
(400 -1.93926e-14 0)
(400 -4.71766e-15 0)
(400 2.95909e-14 0)
(400 4.37696e-14 0)
(400 4.03051e-14 0)
(400 4.2429e-14 0)
(400 4.69178e-14 0)
(400 4.52171e-14 0)
(400 4.58163e-14 0)
(400 3.33157e-14 0)
(400 4.254e-14 0)
(400 6.36802e-14 0)
(400 7.92988e-14 0)
(400 7.36468e-14 0)
(400 6.31685e-14 0)
(400 6.1414e-14 0)
(400 6.66877e-14 0)
(400 7.05653e-14 0)
(400 6.23857e-14 0)
(400 5.6528e-14 0)
(400 4.89052e-14 0)
(400 5.98488e-14 0)
(400 4.95744e-14 0)
(400 4.33254e-14 0)
(400 3.03797e-14 0)
(400 1.85507e-14 0)
(400 2.06054e-14 0)
(400 2.65432e-14 0)
(400 2.93491e-14 0)
(400 2.06992e-14 0)
(400 2.79682e-14 0)
(400 2.10717e-14 0)
(400 6.57521e-15 0)
(400 -2.05622e-14 0)
(400 -2.28352e-14 0)
(400 -1.68688e-14 0)
(400 -2.9242e-14 0)
(400 -4.07908e-14 0)
(400 -3.40148e-14 0)
(400 -4.58348e-14 0)
(400 -5.29032e-14 0)
(400 -6.28405e-14 0)
(400 -7.97821e-14 0)
(400 -9.73783e-14 0)
(400 -1.00966e-13 0)
(400 -8.94102e-14 0)
(400 -9.13246e-14 0)
(400 -8.70374e-14 0)
(400 -6.3665e-14 0)
(400 -3.32519e-14 0)
(400 -2.16565e-14 0)
(400 -4.08321e-14 0)
(400 -4.25959e-14 0)
(400 -3.06959e-14 0)
(400 -3.41478e-14 0)
(400 -2.18992e-14 0)
(400 -2.64454e-14 0)
(400 -2.89668e-15 0)
(400 2.7566e-14 0)
(400 2.6913e-14 0)
(400 4.6617e-14 0)
(400 8.05174e-15 0)
(400 1.09922e-14 0)
(400 1.43799e-14 0)
(400 1.04906e-14 0)
(400 1.17052e-14 0)
(400 2.15364e-14 0)
(400 3.92371e-14 0)
(400 3.57415e-14 0)
(400 3.79774e-14 0)
(400 4.32421e-14 0)
(400 4.61274e-14 0)
(400 3.90534e-14 0)
(400 3.2677e-14 0)
(400 3.95043e-14 0)
(400 3.31833e-14 0)
(400 3.40272e-14 0)
(400 3.15034e-14 0)
(400 6.91587e-15 0)
(400 -8.85329e-15 0)
(400 -1.60069e-14 0)
(400 -3.71251e-14 0)
(400 -4.30663e-14 0)
(400 -2.74711e-14 0)
(400 -3.42572e-14 0)
(400 -4.12975e-14 0)
(400 -4.28322e-14 0)
(400 -4.50198e-14 0)
(400 -4.22932e-14 0)
(400 -3.51129e-14 0)
(400 -3.5765e-14 0)
(400 -4.05222e-14 0)
(400 -4.42781e-14 0)
(400 -4.18937e-14 0)
(400 -3.08229e-14 0)
(400 -2.36448e-14 0)
(400 -1.60224e-14 0)
(400 -1.28913e-14 0)
(400 -1.42605e-14 0)
(400 -1.28132e-14 0)
(400 -4.60454e-15 0)
(400 1.86136e-14 0)
(400 4.77861e-14 0)
(400 6.58648e-14 0)
(400 5.82545e-14 0)
(400 4.05262e-14 0)
(400 4.22296e-14 0)
(400 5.13197e-14 0)
(400 5.4322e-14 0)
(400 3.50482e-14 0)
(400 2.54276e-14 0)
(400 3.24051e-14 0)
(400 4.38962e-14 0)
(400 4.81793e-14 0)
(400 6.53183e-14 0)
(400 8.01885e-14 0)
(400 8.9612e-14 0)
(400 9.29736e-14 0)
(400 8.20428e-14 0)
(400 7.78955e-14 0)
(400 7.60635e-14 0)
(400 7.46502e-14 0)
(400 6.38636e-14 0)
(400 5.93313e-14 0)
(400 5.56361e-14 0)
(400 7.24523e-14 0)
(400 7.55429e-14 0)
(400 7.85222e-14 0)
(400 7.39677e-14 0)
(400 6.55417e-14 0)
(400 5.75724e-14 0)
(400 2.51907e-14 0)
(400 1.69495e-14 0)
(400 9.21309e-15 0)
(400 1.53837e-14 0)
(400 3.66875e-14 0)
(400 3.87724e-14 0)
(400 3.77554e-14 0)
(400 3.78392e-14 0)
(400 3.19489e-14 0)
(400 3.40067e-14 0)
(400 3.41277e-14 0)
(400 3.21528e-14 0)
(400 3.78048e-14 0)
(400 4.53534e-14 0)
(400 4.71077e-14 0)
(400 3.39711e-14 0)
(400 2.36189e-15 0)
(400 -1.18395e-14 0)
(400 -1.0484e-14 0)
(400 -5.77386e-16 0)
(400 3.71448e-16 0)
(400 -1.63269e-15 0)
(400 -4.15156e-15 0)
(400 -3.2511e-15 0)
(400 -1.42985e-14 0)
(400 -2.43299e-14 0)
(400 -1.87325e-14 0)
(400 -1.34546e-14 0)
(400 -8.27192e-16 0)
(400 -4.5943e-15 0)
(400 -5.56638e-15 0)
(400 -4.93672e-15 0)
(400 1.24197e-14 0)
(400 3.79429e-14 0)
(400 5.25278e-14 0)
(400 4.99717e-14 0)
(400 5.45691e-14 0)
(400 4.71824e-14 0)
(400 4.54149e-14 0)
(400 2.36785e-14 0)
(400 9.70653e-16 0)
(400 4.5557e-15 0)
(400 2.07955e-15 0)
(400 -1.04489e-15 0)
(400 -6.06022e-15 0)
(400 6.47259e-15 0)
(400 1.17698e-14 0)
(400 1.30199e-14 0)
(400 7.39569e-15 0)
(400 1.0441e-14 0)
(400 1.06855e-14 0)
(400 2.12059e-14 0)
(400 1.66291e-14 0)
(400 2.43077e-14 0)
(400 2.98006e-14 0)
(400 3.04199e-14 0)
(400 4.09003e-14 0)
(400 3.78778e-14 0)
(400 3.27967e-14 0)
(400 1.79137e-14 0)
(400 -6.74992e-15 0)
(400 -9.24204e-15 0)
(400 -1.42946e-14 0)
(400 -2.36723e-14 0)
(400 -4.07092e-14 0)
(400 -5.89245e-14 0)
(400 -5.63726e-14 0)
(400 -5.12971e-14 0)
(400 -4.53075e-14 0)
(400 -2.31844e-14 0)
(400 2.58622e-15 0)
(400 3.85956e-14 0)
(400 4.81631e-14 0)
(400 4.15048e-14 0)
(400 2.22496e-14 0)
(400 3.23761e-14 0)
(400 3.58513e-14 0)
(400 3.4712e-14 0)
(400 4.0471e-14 0)
(400 3.04338e-14 0)
(400 1.69487e-14 0)
(400 2.38968e-14 0)
(400 3.3833e-14 0)
(400 3.1782e-14 0)
(400 2.63477e-14 0)
(400 4.12711e-14 0)
(400 4.30042e-14 0)
(400 4.19773e-14 0)
(400 3.40606e-14 0)
(400 2.6436e-14 0)
(400 3.23414e-14 0)
(400 3.94996e-14 0)
(400 4.02647e-14 0)
(400 2.46616e-14 0)
(400 1.18822e-14 0)
(400 1.28098e-14 0)
(400 1.90808e-14 0)
(400 1.95201e-14 0)
(400 1.98463e-14 0)
(400 2.95152e-14 0)
(400 1.75484e-14 0)
(400 1.06305e-14 0)
(400 8.60585e-15 0)
(400 7.00899e-16 0)
(400 -3.08773e-15 0)
(400 -3.73172e-15 0)
(400 -1.77158e-14 0)
(400 -3.62022e-14 0)
(400 -4.45613e-14 0)
(400 -5.12222e-14 0)
(400 -6.68526e-14 0)
(400 -7.30905e-14 0)
(400 -7.54909e-14 0)
(400 -8.01501e-14 0)
(400 -7.90676e-14 0)
(400 -8.17066e-14 0)
(400 -8.28737e-14 0)
(400 -6.30064e-14 0)
(400 -4.27394e-14 0)
(400 -2.7039e-14 0)
(400 -3.06357e-14 0)
(400 -2.5297e-14 0)
(400 -1.87061e-14 0)
(400 -3.05859e-14 0)
(400 -2.55569e-14 0)
(400 -2.7099e-14 0)
(400 -1.77489e-14 0)
(400 7.42834e-15 0)
(400 -1.45992e-14 0)
(400 -1.39325e-14 0)
(400 7.65891e-15 0)
(400 2.18398e-14 0)
(400 2.36852e-14 0)
(400 2.49087e-14 0)
(400 3.1488e-14 0)
(400 3.31956e-14 0)
(400 2.98954e-14 0)
(400 2.86539e-14 0)
(400 2.95087e-14 0)
(400 2.18914e-14 0)
(400 2.15815e-14 0)
(400 1.34604e-14 0)
(400 1.93389e-14 0)
(400 2.89122e-14 0)
(400 3.90912e-14 0)
(400 3.88638e-14 0)
(400 1.97043e-14 0)
(400 -2.428e-14 0)
(400 -3.06449e-14 0)
(400 -7.45468e-15 0)
(400 -1.42797e-14 0)
(400 -2.9254e-14 0)
(400 -3.50167e-14 0)
(400 -5.6733e-14 0)
(400 -5.30338e-14 0)
(400 -4.31615e-14 0)
(400 -2.30722e-14 0)
(400 -2.48857e-14 0)
(400 -3.27739e-14 0)
(400 -3.56463e-14 0)
(400 -4.5588e-14 0)
(400 -5.17188e-14 0)
(400 -5.76786e-14 0)
(400 -5.67807e-14 0)
(400 -4.1759e-14 0)
(400 -3.72163e-14 0)
(400 -3.16698e-14 0)
(400 -2.90006e-14 0)
(400 -2.74141e-14 0)
(400 -3.45194e-15 0)
(400 1.3799e-14 0)
(400 2.74299e-14 0)
(400 3.26222e-14 0)
(400 3.22157e-14 0)
(400 3.54959e-14 0)
(400 3.29803e-14 0)
(400 3.143e-14 0)
(400 2.65287e-14 0)
(400 2.01419e-14 0)
(400 1.80793e-14 0)