/*--------------------------------*- C++ -*----------------------------------*\
  =========                 |
  \\      /  F ield         | OpenFOAM: The Open Source CFD Toolbox
   \\    /   O peration     | Website:  https://openfoam.org
    \\  /    A nd           | Version:  6
     \\/     M anipulation  |
\*---------------------------------------------------------------------------*/
FoamFile
{
    version     2.0;
    format      ascii;
    class       volVectorField;
    location    "190";
    object      U;
}
// * * * * * * * * * * * * * * * * * * * * * * * * * * * * * * * * * * * * * //

dimensions      [0 1 -1 0 0 0 0];

internalField   nonuniform List<vector> 
4000
(
(400 3.67524e-14 0)
(400 3.54665e-14 0)
(400 2.00368e-14 0)
(400 2.0014e-14 0)
(400 2.73542e-14 0)
(400 3.53527e-14 0)
(400 4.63198e-14 0)
(400 5.8556e-14 0)
(400 6.70505e-14 0)
(400 4.9589e-14 0)
(400 3.88483e-14 0)
(400 4.91891e-14 0)
(400 3.77774e-14 0)
(400 2.55638e-14 0)
(400 2.52081e-14 0)
(400 2.94953e-14 0)
(400 1.76293e-14 0)
(400 1.84761e-15 0)
(400 6.29303e-15 0)
(400 5.60888e-15 0)
(400 6.43959e-15 0)
(400 1.88771e-14 0)
(400 3.0128e-14 0)
(400 4.99251e-14 0)
(400 6.2812e-14 0)
(400 7.96688e-14 0)
(400 8.93238e-14 0)
(400 9.18263e-14 0)
(400 9.111e-14 0)
(400 8.61171e-14 0)
(400 6.48357e-14 0)
(400 4.99003e-14 0)
(400 4.60366e-14 0)
(400 4.20627e-14 0)
(400 2.72974e-14 0)
(400 1.84055e-14 0)
(400 7.79502e-15 0)
(400 -5.82067e-15 0)
(400 -1.10441e-14 0)
(400 -9.86632e-15 0)
(400 6.36343e-15 0)
(400 1.52539e-14 0)
(400 3.36645e-15 0)
(400 -1.17813e-14 0)
(400 -1.29255e-14 0)
(400 -1.08885e-14 0)
(400 -1.50785e-14 0)
(400 -1.62124e-14 0)
(400 -1.9522e-14 0)
(400 -9.73779e-15 0)
(400 7.82041e-15 0)
(400 1.90719e-14 0)
(400 1.72268e-14 0)
(400 2.10482e-15 0)
(400 -1.89567e-14 0)
(400 -6.77087e-15 0)
(400 7.92901e-15 0)
(400 -3.8013e-15 0)
(400 -4.61527e-15 0)
(400 5.36628e-15 0)
(400 1.45238e-14 0)
(400 1.1532e-14 0)
(400 2.50475e-14 0)
(400 4.29589e-14 0)
(400 3.64701e-14 0)
(400 2.32069e-14 0)
(400 1.36902e-14 0)
(400 6.49258e-15 0)
(400 6.50161e-15 0)
(400 1.70882e-14 0)
(400 3.17633e-14 0)
(400 3.99827e-14 0)
(400 3.10607e-14 0)
(400 2.31384e-14 0)
(400 1.11041e-14 0)
(400 6.67529e-15 0)
(400 8.33789e-16 0)
(400 3.42893e-15 0)
(400 -1.36624e-14 0)
(400 -1.92714e-14 0)
(400 -6.44698e-15 0)
(400 1.43266e-14 0)
(400 3.00788e-14 0)
(400 3.95312e-14 0)
(400 3.50326e-14 0)
(400 2.95454e-14 0)
(400 3.40282e-14 0)
(400 2.67455e-14 0)
(400 1.66858e-14 0)
(400 1.41745e-14 0)
(400 1.87907e-14 0)
(400 2.74863e-14 0)
(400 4.66282e-14 0)
(400 5.40308e-14 0)
(400 6.27644e-14 0)
(400 5.54194e-14 0)
(400 4.97059e-14 0)
(400 5.26766e-14 0)
(400 3.87331e-14 0)
(400 2.4911e-14 0)
(400 2.06163e-14 0)
(400 1.20954e-14 0)
(400 7.781e-15 0)
(400 -1.15236e-15 0)
(400 -1.84762e-15 0)
(400 -1.05412e-14 0)
(400 -2.14209e-14 0)
(400 -3.01536e-14 0)
(400 -4.11397e-14 0)
(400 -4.48596e-14 0)
(400 -5.28315e-14 0)
(400 -5.63979e-14 0)
(400 -8.14909e-14 0)
(400 -8.5274e-14 0)
(400 -8.31269e-14 0)
(400 -7.11059e-14 0)
(400 -6.72574e-14 0)
(400 -6.97986e-14 0)
(400 -7.28278e-14 0)
(400 -6.0063e-14 0)
(400 -4.24294e-14 0)
(400 -3.08808e-14 0)
(400 -8.54072e-15 0)
(400 -6.30857e-15 0)
(400 -1.00071e-14 0)
(400 -1.27291e-14 0)
(400 -1.24391e-14 0)
(400 -6.24883e-15 0)
(400 -1.01461e-14 0)
(400 -1.05372e-14 0)
(400 -7.30012e-15 0)
(400 1.5324e-15 0)
(400 9.85073e-15 0)
(400 3.48109e-14 0)
(400 4.98333e-14 0)
(400 4.72399e-14 0)
(400 5.0267e-14 0)
(400 4.90994e-14 0)
(400 3.12992e-14 0)
(400 8.05979e-17 0)
(400 -7.33102e-15 0)
(400 -2.37862e-14 0)
(400 -3.30834e-14 0)
(400 -4.40103e-14 0)
(400 -5.35809e-14 0)
(400 -3.36124e-14 0)
(400 -2.58355e-14 0)
(400 -1.40346e-14 0)
(400 -4.94231e-16 0)
(400 -6.67679e-15 0)
(400 -2.29138e-14 0)
(400 -3.80957e-14 0)
(400 -4.66339e-14 0)
(400 -4.80831e-14 0)
(400 -4.8881e-14 0)
(400 -5.10852e-14 0)
(400 -5.39514e-14 0)
(400 -4.73904e-14 0)
(400 -5.74161e-14 0)
(400 -5.90673e-14 0)
(400 -5.43199e-14 0)
(400 -3.9166e-14 0)
(400 -2.17871e-14 0)
(400 -1.32097e-14 0)
(400 -2.52822e-15 0)
(400 2.4344e-14 0)
(400 5.96226e-14 0)
(400 6.80641e-14 0)
(400 6.36332e-14 0)
(400 6.31241e-14 0)
(400 5.30774e-14 0)
(400 5.26731e-14 0)
(400 5.71336e-14 0)
(400 5.42041e-14 0)
(400 3.94182e-14 0)
(400 3.84159e-14 0)
(400 4.80679e-14 0)
(400 5.98421e-14 0)
(400 5.50598e-14 0)
(400 2.87405e-14 0)
(400 1.65235e-14 0)
(400 1.79548e-14 0)
(400 1.82728e-14 0)
(400 1.10591e-14 0)
(400 1.16536e-14 0)
(400 3.13188e-14 0)
(400 4.80767e-14 0)
(400 4.9634e-14 0)
(400 5.53581e-14 0)
(400 4.62245e-14 0)
(400 3.9447e-14 0)
(400 2.42326e-14 0)
(400 6.06038e-16 0)
(400 -1.22986e-14 0)
(400 -1.94842e-14 0)
(400 -2.45589e-14 0)
(400 -3.47608e-14 0)
(400 -4.74661e-14 0)
(400 -5.97318e-14 0)
(400 -7.06806e-14 0)
(400 -3.69777e-15 0)
(400 -3.64551e-15 0)
(400 -1.74177e-15 0)
(400 4.60439e-15 0)
(400 2.12421e-14 0)
(400 3.67921e-14 0)
(400 5.08018e-14 0)
(400 6.87363e-14 0)
(400 6.59976e-14 0)
(400 5.13438e-14 0)
(400 3.30935e-14 0)
(400 2.41623e-14 0)
(400 1.67561e-14 0)
(400 5.81192e-15 0)
(400 4.4022e-15 0)
(400 3.1512e-15 0)
(400 2.29103e-14 0)
(400 3.91233e-14 0)
(400 4.24819e-14 0)
(400 5.58908e-14 0)
(400 6.3788e-14 0)
(400 6.11918e-14 0)
(400 4.624e-14 0)
(400 4.08201e-14 0)
(400 3.21392e-14 0)
(400 1.18744e-14 0)
(400 4.64683e-15 0)
(400 4.60545e-15 0)
(400 9.24577e-15 0)
(400 1.88327e-14 0)
(400 3.95151e-14 0)
(400 4.59946e-14 0)
(400 3.53063e-14 0)
(400 2.30655e-14 0)
(400 1.07244e-14 0)
(400 4.52702e-15 0)
(400 2.38935e-15 0)
(400 -4.65317e-15 0)
(400 -1.3726e-14 0)
(400 -5.44624e-15 0)
(400 2.32115e-15 0)
(400 9.17467e-15 0)
(400 1.29653e-14 0)
(400 1.43912e-14 0)
(400 1.84948e-15 0)
(400 -1.85968e-15 0)
(400 4.72496e-16 0)
(400 7.19629e-15 0)
(400 -3.35424e-16 0)
(400 -3.64927e-16 0)
(400 1.42082e-14 0)
(400 2.95294e-14 0)
(400 2.33095e-14 0)
(400 -1.17645e-15 0)
(400 -2.87263e-14 0)
(400 -3.25149e-14 0)
(400 -2.53645e-14 0)
(400 -3.30247e-14 0)
(400 -3.69958e-14 0)
(400 -2.9166e-14 0)
(400 -2.28455e-14 0)
(400 -2.33273e-14 0)
(400 -2.54215e-14 0)
(400 -2.60464e-14 0)
(400 -2.69137e-14 0)
(400 -2.04462e-14 0)
(400 -2.80311e-14 0)
(400 -3.62957e-14 0)
(400 -2.15747e-14 0)
(400 -1.41314e-14 0)
(400 -4.74904e-15 0)
(400 1.92763e-15 0)
(400 2.47687e-15 0)
(400 3.25625e-15 0)
(400 1.06811e-14 0)
(400 2.52979e-14 0)
(400 2.9952e-14 0)
(400 3.07902e-14 0)
(400 3.37547e-14 0)
(400 1.89659e-14 0)
(400 1.7871e-14 0)
(400 3.25063e-14 0)
(400 3.45817e-14 0)
(400 5.30586e-14 0)
(400 6.94596e-14 0)
(400 6.65749e-14 0)
(400 6.17899e-14 0)
(400 4.87016e-14 0)
(400 2.1722e-14 0)
(400 5.51871e-15 0)
(400 -9.17276e-17 0)
(400 2.10985e-14 0)
(400 3.87149e-14 0)
(400 3.19194e-14 0)
(400 4.67693e-14 0)
(400 4.26761e-14 0)
(400 4.19355e-14 0)
(400 2.12034e-14 0)
(400 1.18874e-14 0)
(400 2.26521e-14 0)
(400 2.93876e-14 0)
(400 4.16187e-14 0)
(400 3.98973e-14 0)
(400 4.17555e-14 0)
(400 4.94642e-14 0)
(400 4.84268e-14 0)
(400 4.6935e-14 0)
(400 4.22278e-14 0)
(400 4.27156e-14 0)
(400 4.6006e-14 0)
(400 1.55537e-14 0)
(400 1.09069e-14 0)
(400 1.40123e-14 0)
(400 3.41679e-15 0)
(400 4.5643e-15 0)
(400 9.37016e-15 0)
(400 1.88251e-14 0)
(400 2.78691e-14 0)
(400 4.38722e-14 0)
(400 4.86692e-14 0)
(400 3.68351e-14 0)
(400 4.00709e-14 0)
(400 4.5787e-14 0)
(400 5.02134e-14 0)
(400 5.09989e-14 0)
(400 5.28412e-14 0)
(400 5.38438e-14 0)
(400 4.41205e-14 0)
(400 4.86373e-14 0)
(400 5.72685e-14 0)
(400 4.84397e-14 0)
(400 4.47185e-14 0)
(400 5.27198e-14 0)
(400 4.82488e-14 0)
(400 5.89039e-14 0)
(400 5.98398e-14 0)
(400 6.41048e-14 0)
(400 4.89395e-14 0)
(400 2.55345e-14 0)
(400 -5.52969e-15 0)
(400 -1.31853e-14 0)
(400 -3.7682e-14 0)
(400 -6.58393e-14 0)
(400 -7.60947e-14 0)
(400 -7.81574e-14 0)
(400 -9.80725e-14 0)
(400 -1.19064e-13 0)
(400 -1.1028e-13 0)
(400 -7.37862e-14 0)
(400 -6.45294e-14 0)
(400 -8.00425e-14 0)
(400 -8.97759e-14 0)
(400 -8.42746e-14 0)
(400 -6.53673e-14 0)
(400 -6.22899e-14 0)
(400 -5.23721e-14 0)
(400 -6.04484e-14 0)
(400 -5.42919e-14 0)
(400 -5.04105e-14 0)
(400 -5.59458e-14 0)
(400 -6.2113e-14 0)
(400 -4.17639e-14 0)
(400 3.7342e-15 0)
(400 2.12053e-14 0)
(400 4.60451e-14 0)
(400 8.05197e-14 0)
(400 1.0706e-13 0)
(400 1.22214e-13 0)
(400 1.07532e-13 0)
(400 8.93269e-14 0)
(400 7.89574e-14 0)
(400 7.94861e-14 0)
(400 7.21808e-14 0)
(400 6.2751e-14 0)
(400 6.08758e-14 0)
(400 6.7011e-14 0)
(400 6.43372e-14 0)
(400 7.52925e-14 0)
(400 6.79253e-14 0)
(400 6.94932e-14 0)
(400 8.56797e-14 0)
(400 7.93703e-14 0)
(400 5.06493e-14 0)
(400 3.22274e-14 0)
(400 2.07952e-14 0)
(400 3.86672e-14 0)
(400 5.18123e-14 0)
(400 6.95644e-14 0)
(400 6.60071e-14 0)
(400 5.15048e-14 0)
(400 5.69791e-14 0)
(400 5.19209e-14 0)
(400 4.04687e-14 0)
(400 3.74313e-14 0)
(400 3.77488e-14 0)
(400 3.90469e-14 0)
(400 4.2513e-14 0)
(400 2.88268e-14 0)
(400 7.96375e-15 0)
(400 -1.07735e-14 0)
(400 -2.79624e-14 0)
(400 -4.22365e-14 0)
(400 -3.36659e-14 0)
(400 -2.22228e-14 0)
(400 -1.75412e-14 0)
(400 -1.1061e-14 0)
(400 -6.91744e-15 0)
(400 -4.83176e-15 0)
(400 2.08914e-15 0)
(400 7.07483e-15 0)
(400 -3.84985e-15 0)
(400 -1.39347e-14 0)
(400 -1.50104e-14 0)
(400 -7.21839e-15 0)
(400 1.02578e-14 0)
(400 2.72108e-14 0)
(400 5.08592e-14 0)
(400 7.52101e-14 0)
(400 8.03061e-14 0)
(400 6.83608e-14 0)
(400 6.43721e-14 0)
(400 5.27573e-14 0)
(400 3.58913e-14 0)
(400 1.80373e-14 0)
(400 2.1839e-14 0)
(400 1.42916e-14 0)
(400 7.27002e-15 0)
(400 1.2192e-14 0)
(400 3.51227e-14 0)
(400 4.23341e-14 0)
(400 6.94399e-14 0)
(400 6.27834e-14 0)
(400 5.48913e-14 0)
(400 7.02619e-14 0)
(400 6.00782e-14 0)
(400 5.28534e-14 0)
(400 4.82058e-14 0)
(400 4.65234e-14 0)
(400 4.59564e-14 0)
(400 3.45144e-14 0)
(400 1.40053e-14 0)
(400 1.29805e-14 0)
(400 2.43463e-15 0)
(400 -9.60647e-16 0)
(400 -1.93185e-14 0)
(400 -2.11026e-14 0)
(400 -2.15197e-14 0)
(400 -1.51539e-14 0)
(400 -8.23846e-15 0)
(400 -2.54352e-14 0)
(400 -1.87425e-14 0)
(400 7.63313e-15 0)
(400 1.88136e-14 0)
(400 1.53859e-14 0)
(400 3.04415e-14 0)
(400 4.78213e-14 0)
(400 5.00558e-14 0)
(400 5.66549e-14 0)
(400 3.91319e-14 0)
(400 3.26406e-14 0)
(400 3.47771e-14 0)
(400 4.19156e-14 0)
(400 4.73713e-14 0)
(400 4.9749e-14 0)
(400 4.39167e-14 0)
(400 3.11022e-14 0)
(400 2.9094e-14 0)
(400 3.25114e-14 0)
(400 3.36081e-14 0)
(400 2.22877e-14 0)
(400 1.16845e-14 0)
(400 3.49317e-15 0)
(400 -1.1355e-16 0)
(400 1.03955e-14 0)
(400 2.50785e-14 0)
(400 3.77292e-14 0)
(400 4.61283e-14 0)
(400 4.21084e-14 0)
(400 4.30111e-14 0)
(400 2.59356e-14 0)
(400 -1.79896e-15 0)
(400 -7.34332e-15 0)
(400 -9.27338e-15 0)
(400 5.00694e-15 0)
(400 9.78181e-15 0)
(400 8.92135e-15 0)
(400 9.51083e-15 0)
(400 3.75882e-15 0)
(400 -1.16235e-14 0)
(400 -2.70904e-14 0)
(400 -2.96356e-14 0)
(400 -1.75911e-14 0)
(400 -8.68647e-15 0)
(400 4.48376e-16 0)
(400 4.86964e-16 0)
(400 -1.29221e-15 0)
(400 4.85377e-15 0)
(400 -5.12844e-15 0)
(400 -1.61232e-15 0)
(400 -8.58494e-16 0)
(400 -4.30921e-16 0)
(400 6.09587e-15 0)
(400 1.05892e-14 0)
(400 1.54671e-14 0)
(400 3.04316e-14 0)
(400 3.57779e-14 0)
(400 2.63595e-14 0)
(400 1.79541e-15 0)
(400 -7.45337e-15 0)
(400 -1.45668e-14 0)
(400 -1.81918e-14 0)
(400 -3.07918e-14 0)
(400 -2.10921e-14 0)
(400 -2.30717e-14 0)
(400 -2.47477e-14 0)
(400 -2.74888e-14 0)
(400 -2.62977e-14 0)
(400 -2.07681e-14 0)
(400 -4.75962e-15 0)
(400 -1.59257e-14 0)
(400 -2.9507e-14 0)
(400 -3.89172e-14 0)
(400 -3.37319e-14 0)
(400 -2.36343e-14 0)
(400 -1.83447e-14 0)
(400 -2.38886e-14 0)
(400 -3.00669e-14 0)
(400 -3.63998e-14 0)
(400 -1.88845e-14 0)
(400 1.28467e-15 0)
(400 1.78849e-14 0)
(400 2.80313e-14 0)
(400 3.78811e-14 0)
(400 3.35214e-14 0)
(400 4.45822e-14 0)
(400 7.87297e-14 0)
(400 1.02189e-13 0)
(400 9.99514e-14 0)
(400 9.4797e-14 0)
(400 9.40168e-14 0)
(400 6.90283e-14 0)
(400 4.74621e-14 0)
(400 2.4142e-14 0)
(400 6.68447e-16 0)
(400 8.89215e-16 0)
(400 -1.9662e-14 0)
(400 -3.77252e-14 0)
(400 -3.22093e-14 0)
(400 -1.86267e-14 0)
(400 -1.40963e-14 0)
(400 -1.39456e-14 0)
(400 -2.00863e-14 0)
(400 -3.16303e-14 0)
(400 -3.49103e-14 0)
(400 -3.33296e-14 0)
(400 -2.21179e-14 0)
(400 -2.37996e-14 0)
(400 -3.88399e-14 0)
(400 -4.20366e-14 0)
(400 -4.20569e-14 0)
(400 -3.37149e-14 0)
(400 -1.04399e-14 0)
(400 3.09383e-14 0)
(400 4.90881e-14 0)
(400 7.28925e-14 0)
(400 8.42693e-14 0)
(400 8.51092e-14 0)
(400 1.01134e-13 0)
(400 8.97366e-14 0)
(400 7.50744e-14 0)
(400 6.0429e-14 0)
(400 3.99625e-14 0)
(400 1.49122e-14 0)
(400 1.82877e-14 0)
(400 3.08748e-14 0)
(400 3.64153e-14 0)
(400 2.09441e-14 0)
(400 8.27102e-15 0)
(400 9.98581e-15 0)
(400 4.11527e-14 0)
(400 5.32149e-14 0)
(400 4.38603e-14 0)
(400 3.01316e-14 0)
(400 2.3257e-14 0)
(400 2.30953e-14 0)
(400 1.8843e-14 0)
(400 1.66738e-14 0)
(400 3.04153e-14 0)
(400 3.11179e-14 0)
(400 3.4769e-14 0)
(400 2.98748e-14 0)
(400 1.7799e-14 0)
(400 1.65135e-14 0)
(400 2.1956e-14 0)
(400 3.83285e-14 0)
(400 3.95581e-14 0)
(400 4.13773e-14 0)
(400 4.24575e-14 0)
(400 2.48804e-14 0)
(400 7.23441e-15 0)
(400 -1.28783e-14 0)
(400 -2.66067e-14 0)
(400 -1.81046e-14 0)
(400 -5.87499e-15 0)
(400 -9.47366e-15 0)
(400 -2.65322e-14 0)
(400 -3.32595e-14 0)
(400 -3.50559e-14 0)
(400 -3.07728e-14 0)
(400 -2.58669e-14 0)
(400 -3.22168e-14 0)
(400 -3.8419e-14 0)
(400 -4.62416e-14 0)
(400 -2.63021e-14 0)
(400 1.26985e-14 0)
(400 2.48331e-14 0)
(400 3.27931e-14 0)
(400 5.66521e-14 0)
(400 6.65861e-14 0)
(400 5.1691e-14 0)
(400 4.50866e-14 0)
(400 3.71285e-14 0)
(400 2.36619e-14 0)
(400 3.55835e-15 0)
(400 1.67331e-16 0)
(400 7.40427e-15 0)
(400 2.48233e-15 0)
(400 6.37368e-15 0)
(400 2.12523e-14 0)
(400 3.56953e-14 0)
(400 5.62017e-14 0)
(400 5.6626e-14 0)
(400 5.30466e-14 0)
(400 5.61378e-14 0)
(400 4.64455e-14 0)
(400 4.3645e-14 0)
(400 3.25472e-14 0)
(400 1.90276e-14 0)
(400 2.58861e-14 0)
(400 1.4894e-15 0)
(400 -1.85283e-14 0)
(400 -1.94037e-14 0)
(400 -1.59559e-14 0)
(400 -8.15898e-15 0)
(400 -2.25319e-14 0)
(400 -3.72933e-14 0)
(400 -3.43466e-14 0)
(400 -3.14697e-14 0)
(400 -3.60508e-14 0)
(400 -4.3022e-14 0)
(400 -2.20668e-14 0)
(400 -1.28555e-14 0)
(400 3.23721e-15 0)
(400 1.51069e-14 0)
(400 2.13719e-14 0)
(400 2.19287e-14 0)
(400 2.65231e-14 0)
(400 3.51082e-14 0)
(400 3.14296e-14 0)
(400 2.35247e-14 0)
(400 2.57811e-14 0)
(400 1.99579e-14 0)
(400 2.51557e-14 0)
(400 3.46522e-14 0)
(400 2.75814e-14 0)
(400 5.17125e-15 0)
(400 -2.39748e-14 0)
(400 -2.83493e-14 0)
(400 -3.14179e-14 0)
(400 -3.24163e-14 0)
(400 -3.86953e-14 0)
(400 -4.9083e-14 0)
(400 -4.96069e-14 0)
(400 -4.7681e-14 0)
(400 -3.77473e-14 0)
(400 -4.04972e-14 0)
(400 -3.24926e-14 0)
(400 -1.98205e-14 0)
(400 -9.84634e-15 0)
(400 -5.06136e-15 0)
(400 -3.92811e-15 0)
(400 -5.04035e-15 0)
(400 -3.7801e-18 0)
(400 8.9387e-15 0)
(400 -1.89814e-15 0)
(400 -4.88626e-15 0)
(400 8.42016e-15 0)
(400 2.1656e-14 0)
(400 1.88393e-14 0)
(400 -5.24743e-16 0)
(400 -2.3818e-15 0)
(400 3.05664e-16 0)
(400 3.81576e-15 0)
(400 1.74509e-14 0)
(400 1.42354e-14 0)
(400 2.61631e-14 0)
(400 2.97344e-14 0)
(400 4.414e-14 0)
(400 5.7481e-14 0)
(400 6.49144e-14 0)
(400 5.24423e-14 0)
(400 2.74605e-14 0)
(400 4.16232e-14 0)
(400 6.34215e-14 0)
(400 7.21511e-14 0)
(400 6.98774e-14 0)
(400 5.29104e-14 0)
(400 6.8202e-14 0)
(400 6.89273e-14 0)
(400 7.14949e-14 0)
(400 9.25406e-14 0)
(400 8.83937e-14 0)
(400 8.47646e-14 0)
(400 8.85696e-14 0)
(400 8.93011e-14 0)
(400 9.79669e-14 0)
(400 9.44563e-14 0)
(400 8.37095e-14 0)
(400 7.31827e-14 0)
(400 5.50628e-14 0)
(400 4.20709e-14 0)
(400 1.89022e-14 0)
(400 3.0626e-14 0)
(400 2.73497e-14 0)
(400 1.77222e-14 0)
(400 1.33293e-14 0)
(400 9.61962e-15 0)
(400 7.70588e-15 0)
(400 1.07538e-14 0)
(400 1.34908e-14 0)
(400 3.14993e-14 0)
(400 2.39535e-14 0)
(400 1.26075e-14 0)
(400 7.52124e-15 0)
(400 1.72991e-14 0)
(400 3.41051e-14 0)
(400 4.18943e-14 0)
(400 4.23364e-14 0)
(400 4.16587e-14 0)
(400 4.50805e-14 0)
(400 1.15907e-14 0)
(400 -7.89061e-15 0)
(400 -2.14361e-14 0)
(400 -3.25096e-14 0)
(400 -4.16664e-14 0)
(400 -4.6685e-14 0)
(400 -5.9427e-14 0)
(400 -6.52329e-14 0)
(400 -6.42368e-14 0)
(400 -5.46335e-14 0)
(400 -5.26688e-14 0)
(400 -5.93198e-14 0)
(400 -5.58395e-14 0)
(400 -4.63857e-14 0)
(400 -2.72634e-14 0)
(400 -4.53269e-15 0)
(400 1.56693e-14 0)
(400 3.0031e-15 0)
(400 1.31914e-14 0)
(400 1.80419e-14 0)
(400 3.57341e-14 0)
(400 5.08782e-14 0)
(400 5.71742e-14 0)
(400 8.52676e-14 0)
(400 1.07191e-13 0)
(400 9.98035e-14 0)
(400 1.0135e-13 0)
(400 1.03052e-13 0)
(400 1.09182e-13 0)
(400 1.05405e-13 0)
(400 1.02193e-13 0)
(400 8.09772e-14 0)
(400 6.72197e-14 0)
(400 6.14092e-14 0)
(400 5.43282e-14 0)
(400 5.28989e-14 0)
(400 5.68317e-14 0)
(400 4.39351e-14 0)
(400 6.09708e-14 0)
(400 6.90646e-14 0)
(400 6.73618e-14 0)
(400 6.27495e-14 0)
(400 6.48026e-14 0)
(400 6.21118e-14 0)
(400 4.81369e-14 0)
(400 2.42806e-14 0)
(400 1.01168e-14 0)
(400 -1.69606e-14 0)
(400 -7.61493e-15 0)
(400 -1.34717e-16 0)
(400 1.72282e-14 0)
(400 2.99759e-14 0)
(400 4.01308e-14 0)
(400 4.94227e-14 0)
(400 5.14601e-14 0)
(400 4.77651e-14 0)
(400 3.9602e-14 0)
(400 3.34741e-14 0)
(400 2.39521e-14 0)
(400 1.04103e-14 0)
(400 5.23932e-15 0)
(400 4.24458e-15 0)
(400 4.52767e-15 0)
(400 5.39873e-15 0)
(400 6.65773e-15 0)
(400 -4.31166e-15 0)
(400 -9.47441e-15 0)
(400 1.09768e-14 0)
(400 1.25175e-14 0)
(400 9.73083e-15 0)
(400 -5.50657e-15 0)
(400 -2.93852e-14 0)
(400 -3.12684e-14 0)
(400 -2.20417e-14 0)
(400 -1.61452e-14 0)
(400 -2.9808e-14 0)
(400 -1.21517e-14 0)
(400 1.42129e-14 0)
(400 2.12897e-14 0)
(400 3.00532e-14 0)
(400 3.56124e-14 0)
(400 3.64111e-14 0)
(400 3.28056e-14 0)
(400 3.63832e-14 0)
(400 2.71181e-14 0)
(400 2.26039e-14 0)
(400 1.74167e-14 0)
(400 1.36303e-14 0)
(400 3.18815e-15 0)
(400 1.04838e-14 0)
(400 8.77376e-15 0)
(400 1.97796e-14 0)
(400 2.03141e-14 0)
(400 6.66287e-15 0)
(400 1.00351e-14 0)
(400 1.37155e-14 0)
(400 -2.2202e-15 0)
(400 -1.14509e-14 0)
(400 -1.11991e-14 0)
(400 -1.03229e-14 0)
(400 3.71609e-15 0)
(400 2.42709e-15 0)
(400 1.17093e-14 0)
(400 1.68327e-14 0)
(400 1.67459e-14 0)
(400 3.83064e-15 0)
(400 4.18858e-15 0)
(400 -5.55833e-15 0)
(400 -1.54617e-14 0)
(400 -8.26657e-15 0)
(400 1.40073e-14 0)
(400 1.33889e-14 0)
(400 1.61273e-14 0)
(400 3.98439e-14 0)
(400 4.47308e-14 0)
(400 3.07312e-14 0)
(400 2.88431e-14 0)
(400 2.27185e-14 0)
(400 2.60085e-14 0)
(400 1.70792e-14 0)
(400 4.2512e-15 0)
(400 -1.30318e-15 0)
(400 -7.48014e-15 0)
(400 -1.93925e-14 0)
(400 -2.82899e-14 0)
(400 -3.45795e-14 0)
(400 -5.58887e-14 0)
(400 -6.89964e-14 0)
(400 -7.19907e-14 0)
(400 -5.89639e-14 0)
(400 -5.24718e-14 0)
(400 -5.79021e-14 0)
(400 -6.34839e-14 0)
(400 -7.53032e-14 0)
(400 -8.10509e-14 0)
(400 -8.14107e-14 0)
(400 -8.06616e-14 0)
(400 -8.5271e-14 0)
(400 -7.78021e-14 0)
(400 -5.63202e-14 0)
(400 -4.62468e-14 0)
(400 -3.53824e-14 0)
(400 -1.92964e-14 0)
(400 -1.00793e-14 0)
(400 8.09557e-15 0)
(400 3.22571e-14 0)
(400 2.675e-14 0)
(400 3.1188e-14 0)
(400 2.70809e-14 0)
(400 1.56762e-14 0)
(400 2.17433e-14 0)
(400 2.03364e-14 0)
(400 1.52034e-14 0)
(400 1.58794e-14 0)
(400 1.63297e-14 0)
(400 2.68937e-14 0)
(400 1.9057e-14 0)
(400 2.79092e-14 0)
(400 2.85769e-14 0)
(400 3.28127e-14 0)
(400 3.68312e-14 0)
(400 3.46741e-14 0)
(400 5.39278e-14 0)
(400 6.9946e-14 0)
(400 5.53417e-14 0)
(400 4.7868e-14 0)
(400 4.64441e-14 0)
(400 5.96451e-14 0)
(400 5.82044e-14 0)
(400 6.91041e-14 0)
(400 8.78668e-14 0)
(400 1.01099e-13 0)
(400 9.10481e-14 0)
(400 7.00165e-14 0)
(400 7.76075e-14 0)
(400 8.09261e-14 0)
(400 7.97008e-14 0)
(400 8.90118e-14 0)
(400 6.71859e-14 0)
(400 5.18295e-14 0)
(400 2.83289e-14 0)
(400 2.64221e-14 0)
(400 2.08497e-14 0)
(400 1.03067e-14 0)
(400 7.06826e-15 0)
(400 1.54992e-14 0)
(400 3.26379e-14 0)
(400 5.17739e-14 0)
(400 4.84477e-14 0)
(400 4.07484e-14 0)
(400 4.67525e-14 0)
(400 4.84226e-14 0)
(400 4.77207e-14 0)
(400 4.87572e-14 0)
(400 5.59009e-14 0)
(400 5.26464e-14 0)
(400 5.51393e-14 0)
(400 5.50473e-14 0)
(400 5.69743e-14 0)
(400 5.45899e-14 0)
(400 5.61154e-14 0)
(400 5.1178e-14 0)
(400 4.79748e-14 0)
(400 5.11952e-14 0)
(400 4.97108e-14 0)
(400 4.90771e-14 0)
(400 3.24008e-14 0)
(400 1.1243e-14 0)
(400 -6.33312e-15 0)
(400 2.3394e-15 0)
(400 -1.19525e-15 0)
(400 -9.27888e-15 0)
(400 -2.3156e-14 0)
(400 -3.25578e-14 0)
(400 -2.52584e-14 0)
(400 -8.88147e-15 0)
(400 -1.25159e-14 0)
(400 -5.5879e-15 0)
(400 8.40908e-15 0)
(400 2.56703e-14 0)
(400 5.2121e-14 0)
(400 4.87904e-14 0)
(400 2.42037e-14 0)
(400 3.74866e-14 0)
(400 4.46972e-14 0)
(400 3.53636e-14 0)
(400 4.19982e-14 0)
(400 3.56799e-14 0)
(400 3.61433e-14 0)
(400 4.04847e-14 0)
(400 5.22569e-14 0)
(400 5.56653e-14 0)
(400 5.47526e-14 0)
(400 2.70558e-14 0)
(400 1.49269e-14 0)
(400 1.15659e-15 0)
(400 -9.05627e-15 0)
(400 -8.19104e-15 0)
(400 -4.49821e-16 0)
(400 7.61667e-15 0)
(400 1.65195e-14 0)
(400 2.55602e-14 0)
(400 1.59944e-14 0)
(400 -6.44026e-16 0)
(400 -1.5577e-14 0)
(400 -1.75678e-14 0)
(400 -2.40833e-14 0)
(400 -3.56554e-14 0)
(400 -2.88752e-14 0)
(400 -9.77176e-15 0)
(400 4.12095e-15 0)
(400 7.50536e-15 0)
(400 2.21287e-14 0)
(400 3.02407e-14 0)
(400 2.94093e-14 0)
(400 3.41996e-14 0)
(400 4.60989e-14 0)
(400 4.72526e-14 0)
(400 4.75998e-14 0)
(400 4.92783e-14 0)
(400 1.50529e-14 0)
(400 1.78366e-14 0)
(400 4.04819e-15 0)
(400 -1.24712e-15 0)
(400 -2.22154e-15 0)
(400 -2.56232e-15 0)
(400 -4.25709e-15 0)
(400 3.63388e-15 0)
(400 4.23446e-15 0)
(400 -6.11586e-15 0)
(400 -1.11686e-14 0)
(400 -2.27081e-14 0)
(400 -1.86641e-14 0)
(400 -2.8533e-14 0)
(400 -5.4899e-14 0)
(400 -4.74177e-14 0)
(400 -3.5134e-14 0)
(400 -2.08384e-14 0)
(400 -8.41556e-15 0)
(400 -1.14552e-15 0)
(400 9.42407e-15 0)
(400 2.03615e-14 0)
(400 4.25379e-14 0)
(400 5.52083e-14 0)
(400 5.04589e-14 0)
(400 5.04896e-14 0)
(400 4.61766e-14 0)
(400 4.22113e-14 0)
(400 4.22374e-14 0)
(400 3.22696e-14 0)
(400 2.27407e-14 0)
(400 1.17105e-14 0)
(400 3.82885e-15 0)
(400 -6.97596e-15 0)
(400 -4.60497e-15 0)
(400 -1.82633e-14 0)
(400 -2.03414e-14 0)
(400 -1.29473e-14 0)
(400 -1.74694e-14 0)
(400 -1.53154e-14 0)
(400 9.93341e-15 0)
(400 1.43866e-14 0)
(400 1.47132e-14 0)
(400 8.56134e-15 0)
(400 2.47355e-14 0)
(400 2.43715e-14 0)
(400 1.15446e-14 0)
(400 7.28726e-16 0)
(400 1.11081e-14 0)
(400 1.4472e-14 0)
(400 8.52442e-15 0)
(400 3.28195e-15 0)
(400 1.63258e-14 0)
(400 3.52088e-14 0)
(400 3.88534e-14 0)
(400 1.87207e-14 0)
(400 -1.14769e-15 0)
(400 -1.29521e-14 0)
(400 -2.32945e-14 0)
(400 -3.32671e-14 0)
(400 -4.85475e-14 0)
(400 -4.84516e-14 0)
(400 -4.95207e-14 0)
(400 -5.13477e-14 0)
(400 -4.37233e-14 0)
(400 -4.10756e-14 0)
(400 -3.67726e-14 0)
(400 -2.51776e-14 0)
(400 -2.59006e-14 0)
(400 -1.61551e-14 0)
(400 -1.46609e-14 0)
(400 -1.87003e-14 0)
(400 -3.68563e-14 0)
(400 -4.40866e-14 0)
(400 -5.45089e-14 0)
(400 -6.21042e-14 0)
(400 -6.99144e-14 0)
(400 -7.81742e-14 0)
(400 -7.77099e-14 0)
(400 -4.47767e-14 0)
(400 -1.60811e-14 0)
(400 -8.70413e-15 0)
(400 1.05495e-14 0)
(400 9.57878e-15 0)
(400 3.13372e-14 0)
(400 5.97922e-14 0)
(400 5.4962e-14 0)
(400 4.82786e-14 0)
(400 4.6325e-14 0)
(400 5.09376e-14 0)
(400 5.17671e-14 0)
(400 4.85829e-14 0)
(400 4.59706e-14 0)
(400 3.07047e-14 0)
(400 2.85255e-14 0)
(400 1.94332e-14 0)
(400 2.20057e-14 0)
(400 3.6878e-14 0)
(400 3.15579e-14 0)
(400 2.32711e-14 0)
(400 3.74162e-14 0)
(400 5.5938e-14 0)
(400 5.71042e-14 0)
(400 3.39016e-14 0)
(400 2.74148e-15 0)
(400 -4.04918e-15 0)
(400 1.46013e-14 0)
(400 1.6006e-14 0)
(400 1.95033e-14 0)
(400 3.76364e-14 0)
(400 7.2211e-14 0)
(400 9.24473e-14 0)
(400 7.77218e-14 0)
(400 6.65204e-14 0)
(400 6.7343e-14 0)
(400 5.79743e-14 0)
(400 6.60791e-14 0)
(400 7.00752e-14 0)
(400 5.4707e-14 0)
(400 4.2939e-14 0)
(400 3.10201e-14 0)
(400 3.43484e-14 0)
(400 1.73065e-14 0)
(400 2.25543e-14 0)
(400 1.3938e-14 0)
(400 1.35398e-14 0)
(400 1.19486e-14 0)
(400 2.58887e-14 0)
(400 1.6984e-14 0)
(400 6.7394e-15 0)
(400 7.82311e-15 0)
(400 7.93804e-15 0)
(400 4.25659e-15 0)
(400 9.11405e-15 0)
(400 1.1197e-14 0)
(400 1.11e-14 0)
(400 2.55564e-14 0)
(400 2.28915e-14 0)
(400 1.11707e-14 0)
(400 -5.93258e-15 0)
(400 -1.49665e-14 0)
(400 -8.07982e-15 0)
(400 5.07752e-15 0)
(400 2.2912e-15 0)
(400 1.13319e-14 0)
(400 2.60633e-14 0)
(400 4.28519e-14 0)
(400 3.96086e-14 0)
(400 2.30345e-14 0)
(400 2.10657e-14 0)
(400 2.06418e-14 0)
(400 2.30587e-14 0)
(400 5.8754e-15 0)
(400 -1.99082e-14 0)
(400 -3.61372e-14 0)
(400 -3.30456e-14 0)
(400 -2.65666e-14 0)
(400 -2.23613e-14 0)
(400 -1.75326e-14 0)
(400 3.5955e-15 0)
(400 3.69674e-14 0)
(400 5.41213e-14 0)
(400 4.7879e-14 0)
(400 5.01478e-14 0)
(400 5.80214e-14 0)
(400 6.06377e-14 0)
(400 6.3619e-14 0)
(400 6.84506e-14 0)
(400 6.73003e-14 0)
(400 7.48079e-14 0)
(400 7.26406e-14 0)
(400 7.71907e-14 0)
(400 6.6673e-14 0)
(400 3.59937e-14 0)
(400 1.17928e-14 0)
(400 -1.0664e-14 0)
(400 -2.85293e-14 0)
(400 -3.06377e-14 0)
(400 -2.59603e-14 0)
(400 -2.06429e-14 0)
(400 -6.13416e-15 0)
(400 4.57891e-15 0)
(400 9.54944e-15 0)
(400 -2.12276e-15 0)
(400 -1.1447e-15 0)
(400 -3.52057e-15 0)
(400 -5.67456e-15 0)
(400 6.85449e-15 0)
(400 2.80917e-14 0)
(400 4.61553e-14 0)
(400 3.61342e-14 0)
(400 2.94144e-14 0)
(400 3.13768e-14 0)
(400 1.93129e-14 0)
(400 6.6159e-15 0)
(400 4.77224e-15 0)
(400 1.01397e-14 0)
(400 2.32302e-14 0)
(400 1.67314e-14 0)
(400 2.22467e-14 0)
(400 -8.8758e-16 0)
(400 -1.2951e-14 0)
(400 -6.83745e-15 0)
(400 -5.48143e-15 0)
(400 -2.34198e-14 0)
(400 -2.52746e-14 0)
(400 -2.97642e-14 0)
(400 -4.65665e-14 0)
(400 -5.69681e-14 0)
(400 -5.31193e-14 0)
(400 -2.8768e-14 0)
(400 -1.52944e-14 0)
(400 -1.31641e-14 0)
(400 -2.37041e-14 0)
(400 -3.9018e-14 0)
(400 -2.09327e-14 0)
(400 -1.47043e-14 0)
(400 -9.55577e-15 0)
(400 4.33404e-15 0)
(400 1.90235e-14 0)
(400 3.59423e-14 0)
(400 3.80571e-14 0)
(400 5.03389e-14 0)
(400 3.80936e-14 0)
(400 2.99202e-14 0)
(400 3.61495e-14 0)
(400 2.98621e-14 0)
(400 2.51802e-14 0)
(400 3.03203e-14 0)
(400 2.35124e-14 0)
(400 1.37727e-14 0)
(400 -3.87053e-15 0)
(400 -8.89949e-15 0)
(400 -2.10106e-14 0)
(400 -3.05954e-14 0)
(400 -3.10964e-14 0)
(400 -6.04244e-15 0)
(400 1.24843e-14 0)
(400 2.30965e-14 0)
(400 3.40388e-14 0)
(400 4.94662e-14 0)
(400 5.77178e-14 0)
(400 5.88444e-14 0)
(400 4.69138e-14 0)
(400 5.71154e-14 0)
(400 5.84468e-14 0)
(400 4.76704e-14 0)
(400 4.94169e-14 0)
(400 4.90675e-14 0)
(400 5.37981e-14 0)
(400 2.97963e-14 0)
(400 3.11744e-14 0)
(400 4.59736e-14 0)
(400 5.19822e-14 0)
(400 5.47931e-14 0)
(400 3.70985e-14 0)
(400 1.58589e-14 0)
(400 -1.01866e-14 0)
(400 -1.52967e-14 0)
(400 -2.34621e-14 0)
(400 -4.72241e-14 0)
(400 -5.39238e-14 0)
(400 -5.80579e-14 0)
(400 -6.84302e-14 0)
(400 -5.45755e-14 0)
(400 -5.69276e-14 0)
(400 -3.67341e-14 0)
(400 -2.40737e-14 0)
(400 -1.74461e-14 0)
(400 -2.33756e-14 0)
(400 -4.75643e-14 0)
(400 -4.67571e-14 0)
(400 -6.6128e-14 0)
(400 -7.8347e-14 0)
(400 -7.99108e-14 0)
(400 -9.71833e-14 0)
(400 -1.00233e-13 0)
(400 -1.13444e-13 0)
(400 -1.12291e-13 0)
(400 -9.23333e-14 0)
(400 -4.94293e-14 0)
(400 -3.15007e-14 0)
(400 -2.50145e-14 0)
(400 -2.35433e-14 0)
(400 -2.3851e-14 0)
(400 -2.09211e-14 0)
(400 -4.80354e-15 0)
(400 1.38304e-16 0)
(400 1.42615e-15 0)
(400 2.91806e-15 0)
(400 -5.34802e-15 0)
(400 8.78365e-16 0)
(400 1.05692e-14 0)
(400 1.44983e-14 0)
(400 1.17624e-15 0)
(400 -1.29064e-14 0)
(400 -4.18621e-16 0)
(400 4.91824e-15 0)
(400 1.64098e-14 0)
(400 2.10423e-14 0)
(400 2.3872e-14 0)
(400 2.95758e-14 0)
(400 7.37391e-15 0)
(400 -1.46422e-14 0)
(400 -3.42654e-14 0)
(400 -1.8774e-14 0)
(400 6.5523e-15 0)
(400 2.33121e-14 0)
(400 5.11015e-14 0)
(400 6.48926e-14 0)
(400 7.05787e-14 0)
(400 9.43771e-14 0)
(400 8.60766e-14 0)
(400 9.57173e-14 0)
(400 8.17454e-14 0)
(400 8.05099e-14 0)
(400 1.03183e-13 0)
(400 8.70244e-14 0)
(400 8.39579e-14 0)
(400 6.87364e-14 0)
(400 7.27672e-14 0)
(400 7.51429e-14 0)
(400 7.16187e-14 0)
(400 7.11045e-14 0)
(400 6.49284e-14 0)
(400 6.94936e-14 0)
(400 7.03272e-14 0)
(400 7.96717e-14 0)
(400 7.38655e-14 0)
(400 6.19238e-14 0)
(400 5.60611e-14 0)
(400 6.01895e-14 0)
(400 5.70712e-14 0)
(400 5.88259e-14 0)
(400 5.02334e-14 0)
(400 5.82044e-14 0)
(400 6.7456e-14 0)
(400 5.00861e-14 0)
(400 2.57282e-14 0)
(400 2.92997e-15 0)
(400 -1.07833e-14 0)
(400 -1.80763e-16 0)
(400 5.28623e-15 0)
(400 7.15443e-15 0)
(400 6.66205e-15 0)
(400 2.6048e-14 0)
(400 5.90487e-14 0)
(400 6.51917e-14 0)
(400 5.59642e-14 0)
(400 3.23431e-14 0)
(400 3.70058e-14 0)
(400 3.58401e-14 0)
(400 2.8025e-14 0)
(400 7.33276e-15 0)
(400 -2.01385e-14 0)
(400 -3.0607e-14 0)
(400 -1.98919e-14 0)
(400 -3.21789e-14 0)
(400 -3.47732e-14 0)
(400 -2.40344e-14 0)
(400 -1.40676e-14 0)
(400 5.02905e-15 0)
(400 1.90538e-14 0)
(400 2.14315e-14 0)
(400 2.30915e-14 0)
(400 3.15897e-14 0)
(400 3.59781e-14 0)
(400 3.27063e-14 0)
(400 3.18542e-14 0)
(400 2.96051e-14 0)
(400 7.30748e-15 0)
(400 -6.38917e-15 0)
(400 -1.40775e-14 0)
(400 -2.79564e-14 0)
(400 -5.08934e-14 0)
(400 -5.61055e-14 0)
(400 -5.70345e-14 0)
(400 -6.70189e-14 0)
(400 -6.35112e-14 0)
(400 -6.75384e-14 0)
(400 -6.70895e-14 0)
(400 -6.20346e-14 0)
(400 -2.79117e-14 0)
(400 6.90944e-16 0)
(400 1.29042e-14 0)
(400 1.49775e-14 0)
(400 2.81776e-14 0)
(400 5.55195e-14 0)
(400 7.27001e-14 0)
(400 7.42936e-14 0)
(400 5.38179e-14 0)
(400 5.20497e-14 0)
(400 5.4126e-14 0)
(400 4.46468e-14 0)
(400 3.16515e-14 0)
(400 2.26538e-14 0)
(400 2.2903e-14 0)
(400 3.2023e-14 0)
(400 2.58966e-14 0)
(400 2.88031e-14 0)
(400 -3.17976e-15 0)
(400 5.95724e-16 0)
(400 1.49877e-14 0)
(400 1.03772e-14 0)
(400 1.6634e-15 0)
(400 -9.5814e-15 0)
(400 -2.40897e-14 0)
(400 -3.96879e-14 0)
(400 -4.07628e-14 0)
(400 -3.2301e-14 0)
(400 -1.76475e-14 0)
(400 -1.87704e-14 0)
(400 -9.97512e-15 0)
(400 -7.92841e-15 0)
(400 -6.90428e-15 0)
(400 8.56359e-15 0)
(400 -4.69166e-16 0)
(400 -2.28216e-14 0)
(400 -1.63919e-14 0)
(400 1.84177e-14 0)
(400 4.60121e-14 0)
(400 4.81306e-14 0)
(400 3.28042e-14 0)
(400 1.84775e-14 0)
(400 1.25372e-14 0)
(400 1.5242e-14 0)
(400 1.35614e-14 0)
(400 1.02734e-14 0)
(400 2.33988e-15 0)
(400 -2.49871e-15 0)
(400 -1.26157e-14 0)
(400 -1.5075e-14 0)
(400 -1.05997e-14 0)
(400 -6.47277e-15 0)
(400 3.89401e-15 0)
(400 1.97286e-14 0)
(400 4.90199e-14 0)
(400 5.80358e-14 0)
(400 6.33829e-14 0)
(400 6.73758e-14 0)
(400 6.6176e-14 0)
(400 6.75617e-14 0)
(400 6.78091e-14 0)
(400 5.25287e-14 0)
(400 4.49442e-14 0)
(400 4.79673e-14 0)
(400 4.85351e-14 0)
(400 4.71159e-14 0)