 VARIABLES = "X",  "Y"
 ZONE N=        1772 , E=        3322 , F=FEPOINT, ET=TRIANGLE
        3.0000000000       -0.1570790000
        1.0000000000       -0.1570790000
        3.0000000000        0.1570790000
        1.0000000000        0.1570790000
        2.9789473684       -0.1570790000
        2.9578947368       -0.1570790000
        2.9368421053       -0.1570790000
        2.9157894737       -0.1570790000
        2.8947368421       -0.1570790000
        2.8736842105       -0.1570790000
        2.8526315789       -0.1570790000
        2.8315789474       -0.1570790000
        2.8105263158       -0.1570790000
        2.7894736842       -0.1570790000
        2.7684210526       -0.1570790000
        2.7473684211       -0.1570790000
        2.7263157895       -0.1570790000
        2.7052631579       -0.1570790000
        2.6842105263       -0.1570790000
        2.6631578947       -0.1570790000
        2.6421052632       -0.1570790000
        2.6210526316       -0.1570790000
        2.6000000000       -0.1570790000
        2.5789473684       -0.1570790000
        2.5578947368       -0.1570790000
        2.5368421053       -0.1570790000
        2.5157894737       -0.1570790000
        2.4947368421       -0.1570790000
        2.4736842105       -0.1570790000
        2.4526315789       -0.1570790000
        2.4315789474       -0.1570790000
        2.4105263158       -0.1570790000
        2.3894736842       -0.1570790000
        2.3684210526       -0.1570790000
        2.3473684211       -0.1570790000
        2.3263157895       -0.1570790000
        2.3052631579       -0.1570790000
        2.2842105263       -0.1570790000
        2.2631578947       -0.1570790000
        2.2421052632       -0.1570790000
        2.2210526316       -0.1570790000
        2.2000000000       -0.1570790000
        2.1789473684       -0.1570790000
        2.1578947368       -0.1570790000
        2.1368421053       -0.1570790000
        2.1157894737       -0.1570790000
        2.0947368421       -0.1570790000
        2.0736842105       -0.1570790000
        2.0526315789       -0.1570790000
        2.0315789474       -0.1570790000
        2.0105263158       -0.1570790000
        1.9894736842       -0.1570790000
        1.9684210526       -0.1570790000
        1.9473684211       -0.1570790000
        1.9263157895       -0.1570790000
        1.9052631579       -0.1570790000
        1.8842105263       -0.1570790000
        1.8631578947       -0.1570790000
        1.8421052632       -0.1570790000
        1.8210526316       -0.1570790000
        1.8000000000       -0.1570790000
        1.7789473684       -0.1570790000
        1.7578947368       -0.1570790000
        1.7368421053       -0.1570790000
        1.7157894737       -0.1570790000
        1.6947368421       -0.1570790000
        1.6736842105       -0.1570790000
        1.6526315789       -0.1570790000
        1.6315789474       -0.1570790000
        1.6105263158       -0.1570790000
        1.5894736842       -0.1570790000
        1.5684210526       -0.1570790000
        1.5473684211       -0.1570790000
        1.5263157895       -0.1570790000
        1.5052631579       -0.1570790000
        1.4842105263       -0.1570790000
        1.4631578947       -0.1570790000
        1.4421052632       -0.1570790000
        1.4210526316       -0.1570790000
        1.4000000000       -0.1570790000
        1.3789473684       -0.1570790000
        1.3578947368       -0.1570790000
        1.3368421053       -0.1570790000
        1.3157894737       -0.1570790000
        1.2947368421       -0.1570790000
        1.2736842105       -0.1570790000
        1.2526315789       -0.1570790000
        1.2315789474       -0.1570790000
        1.2105263158       -0.1570790000
        1.1894736842       -0.1570790000
        1.1684210526       -0.1570790000
        1.1473684211       -0.1570790000
        1.1263157895       -0.1570790000
        1.1052631579       -0.1570790000
        1.0842105263       -0.1570790000
        1.0631578947       -0.1570790000
        1.0421052632       -0.1570790000
        1.0210526316       -0.1570790000
        3.0000000000        0.1361351333
        3.0000000000        0.1151912667
        3.0000000000        0.0942474000
        3.0000000000        0.0733035333
        3.0000000000        0.0523596667
        3.0000000000        0.0314158000
        3.0000000000        0.0104719333
        3.0000000000       -0.0104719333
        3.0000000000       -0.0314158000
        3.0000000000       -0.0523596667
        3.0000000000       -0.0733035333
        3.0000000000       -0.0942474000
        3.0000000000       -0.1151912667
        3.0000000000       -0.1361351333
        1.0210526316        0.1570790000
        1.0421052632        0.1570790000
        1.0631578947        0.1570790000
        1.0842105263        0.1570790000
        1.1052631579        0.1570790000
        1.1263157895        0.1570790000
        1.1473684211        0.1570790000
        1.1684210526        0.1570790000
        1.1894736842        0.1570790000
        1.2105263158        0.1570790000
        1.2315789474        0.1570790000
        1.2526315789        0.1570790000
        1.2736842105        0.1570790000
        1.2947368421        0.1570790000
        1.3157894737        0.1570790000
        1.3368421053        0.1570790000
        1.3578947368        0.1570790000
        1.3789473684        0.1570790000
        1.4000000000        0.1570790000
        1.4210526316        0.1570790000
        1.4421052632        0.1570790000
        1.4631578947        0.1570790000
        1.4842105263        0.1570790000
        1.5052631579        0.1570790000
        1.5263157895        0.1570790000
        1.5473684211        0.1570790000
        1.5684210526        0.1570790000
        1.5894736842        0.1570790000
        1.6105263158        0.1570790000
        1.6315789474        0.1570790000
        1.6526315789        0.1570790000
        1.6736842105        0.1570790000
        1.6947368421        0.1570790000
        1.7157894737        0.1570790000
        1.7368421053        0.1570790000
        1.7578947368        0.1570790000
        1.7789473684        0.1570790000
        1.8000000000        0.1570790000
        1.8210526316        0.1570790000
        1.8421052632        0.1570790000
        1.8631578947        0.1570790000
        1.8842105263        0.1570790000
        1.9052631579        0.1570790000
        1.9263157895        0.1570790000
        1.9473684211        0.1570790000
        1.9684210526        0.1570790000
        1.9894736842        0.1570790000
        2.0105263158        0.1570790000
        2.0315789474        0.1570790000
        2.0526315789        0.1570790000
        2.0736842105        0.1570790000
        2.0947368421        0.1570790000
        2.1157894737        0.1570790000
        2.1368421053        0.1570790000
        2.1578947368        0.1570790000
        2.1789473684        0.1570790000
        2.2000000000        0.1570790000
        2.2210526316        0.1570790000
        2.2421052632        0.1570790000
        2.2631578947        0.1570790000
        2.2842105263        0.1570790000
        2.3052631579        0.1570790000
        2.3263157895        0.1570790000
        2.3473684211        0.1570790000
        2.3684210526        0.1570790000
        2.3894736842        0.1570790000
        2.4105263158        0.1570790000
        2.4315789474        0.1570790000
        2.4526315789        0.1570790000
        2.4736842105        0.1570790000
        2.4947368421        0.1570790000
        2.5157894737        0.1570790000
        2.5368421053        0.1570790000
        2.5578947368        0.1570790000
        2.5789473684        0.1570790000
        2.6000000000        0.1570790000
        2.6210526316        0.1570790000
        2.6421052632        0.1570790000
        2.6631578947        0.1570790000
        2.6842105263        0.1570790000
        2.7052631579        0.1570790000
        2.7263157895        0.1570790000
        2.7473684211        0.1570790000
        2.7684210526        0.1570790000
        2.7894736842        0.1570790000
        2.8105263158        0.1570790000
        2.8315789474        0.1570790000
        2.8526315789        0.1570790000
        2.8736842105        0.1570790000
        2.8947368421        0.1570790000
        2.9157894737        0.1570790000
        2.9368421053        0.1570790000
        2.9578947368        0.1570790000
        2.9789473684        0.1570790000
        1.0000000000       -0.1361351333
        1.0000000000       -0.1151912667
        1.0000000000       -0.0942474000
        1.0000000000       -0.0733035333
        1.0000000000       -0.0523596667
        1.0000000000       -0.0314158000
        1.0000000000       -0.0104719333
        1.0000000000        0.0104719333
        1.0000000000        0.0314158000
        1.0000000000        0.0523596667
        1.0000000000        0.0733035333
        1.0000000000        0.0942474000
        1.0000000000        0.1151912667
        1.0000000000        0.1361351333
        1.6640902560       -0.1450954368
        2.5594908897        0.1268018786
        1.5160753313       -0.1381079653
        2.9842375915        0.1222240288
        2.9833229776        0.1041982220
        2.9829573222        0.0838124098
        2.9823083500        0.0421430087
        2.9824886845        0.0629888897
        2.9670549922        0.1154882875
        2.9656719551        0.0947409637
        2.9647487874        0.0529219336
        2.9650096839        0.0737107116
        2.1872178135       -0.1438744531
        2.6964390266       -0.1422824017
        1.9893121206        0.1444283081
        2.3599269885        0.1435784960
        2.2941283875        0.1444370698
        2.3103109463        0.1400116233
        2.3268723343        0.1315372601
        2.3434494757        0.1397798471
        2.2529069338       -0.1443892439
        2.2365580346       -0.1399298620
        2.0614383047        0.1425078375
        2.2008632354        0.1442915810
        2.8248164994        0.1198075352
        2.8079263454        0.1331074808
        2.7895056991        0.1440526965
        2.9420814279       -0.1223776321
        2.5167599082       -0.1443213177
        2.5571103115       -0.1443222301
        2.5370173363       -0.1346005918
        2.5186555557       -0.1225301325
        1.9687728091       -0.1194768755
        2.5741325044       -0.0049659008
        2.5745373999        0.0161719171
        2.5565520978        0.0058505859
        2.5749876688        0.0372162114
        2.5569659937        0.0269621160
        2.5210154661        0.0064248047
        2.5389747652        0.0167108890
        2.5393988274        0.0378184949
        2.5214014990        0.0276267429
        2.5218387644        0.0487770772
        2.4858560475        0.0283503151
        1.9357574168        0.1355368718
        1.9552832317        0.1412849449
        2.1080395189       -0.1424379013
        2.3582082942       -0.1444683071
        2.3418289498       -0.1402882086
        2.3586834198       -0.1283724773
        2.3748411835       -0.1402853316
        2.7684811577       -0.1443386594
        2.7684575846       -0.1233987417
        2.3417019900       -0.1191978991
        2.3418802737       -0.0973800816
        1.0468494637        0.1405825808
        2.8258515973        0.1397654316
        2.8420167112        0.1441177272
        2.0058273395        0.0047407051
        2.8417404452        0.1284918788
        2.9108037569       -0.0404631157
        2.4999053429       -0.1340616868
        2.8020812823       -0.1421764336
        2.7862917753       -0.1345319894
        2.7861226943       -0.1128523882
        2.3424855832       -0.0546252534
        2.3427959956       -0.0333168468
        2.7519249960        0.0147013912
        2.6803278257       -0.1345778521
        2.6626326689       -0.1443967838
        2.6617484379       -0.1232217798
        2.6427772104       -0.1347514127
        2.6221770828       -0.1443563504
        2.6433896114       -0.1121316936
        2.6245239985       -0.1229277047
        2.6056003250       -0.1341722241
        2.6256048034       -0.1009623871
        2.6081607946       -0.0899637803
        2.6074241898       -0.1115983877
        2.5897254447       -0.1412657536
        2.5900607958       -0.1220661130
        2.5904044895       -0.1004542898
        2.5741256396       -0.1340967447
        2.5730582548       -0.1113813849
        2.9727536324       -0.1374547402
        2.9505649004       -0.1369062658
        2.9270849190       -0.1349870417
        2.9079002512       -0.1408432051
        2.9101433407       -0.1237661561
        2.8921305617       -0.1343025724
        2.8921834459       -0.1132587682
        2.2197632544       -0.1315518395
        2.2035162829       -0.1399616465
        2.2017889630       -0.1173484732
        2.3242779833       -0.1329685955
        2.3241039033       -0.1088333179
        2.3064066430       -0.0975118958
        2.3054587870       -0.1437677009
        2.3059783071       -0.1207006628
        2.2872328457       -0.1328961035
        2.2694660049       -0.1401778424
        2.2704874007       -0.1186236849
        2.2532548702       -0.1277090928
        2.2536004258       -0.1067205543
        2.2364721357       -0.1179338085
        2.2363544632       -0.0956672492
        1.5998356772        0.1443648204
        1.9524821960       -0.1130364469
        1.9352322404        0.1143645169
        1.9530243066        0.1019695845
        1.9353396587        0.0915076126
        1.8836125442        0.1216848976
        1.9167200302        0.1240769565
        1.8996854142        0.1140904607
        1.8447453047        0.1216383740
        1.8641221462        0.1175696299
        1.8823109047        0.1032239316
        1.9173972913        0.1028820806
        1.8998614887        0.0919950954
        1.8295220171        0.1138730686
        1.8464912722        0.1031987265
        1.9175826046        0.0808299422
        1.8998645386        0.0701777713
        1.8643965195        0.0928232452
        1.8821937796        0.0812758099
        1.8627455482       -0.1444149042
        1.0157758970       -0.1329446543
        1.0609204584       -0.1440495828
        1.0179203114       -0.1128559239
        1.0369510086       -0.1342472282
        2.0230584858        0.1425310387
        2.0243746193        0.1232063151
        2.0072543541        0.1345459386
        2.2773675381        0.1402369778
        2.3991555395        0.1253678319
        2.3805230457        0.1161976957
        1.4943898656        0.1444666736
        1.4777332466        0.1402835401
        1.4938433857        0.1284000746
        1.4579945124        0.1097192253
        1.4595457953        0.1333100943
        1.4415096652        0.1441008971
        1.4402182318        0.1218820188
        1.4009340801        0.1442991031
        1.4213512739        0.1344099149
        1.4718067086       -0.0929494042
        1.4715879993       -0.1143358875
        1.4867882096       -0.1222098365
        1.4887651463       -0.1041691512
        1.5061675308       -0.1184685373
        1.4762949718        0.1195094566
        1.4932376302        0.1080565477
        1.6470121067       -0.1404526105
        1.6298244531       -0.1329546811
        1.5570347380       -0.1435992648
        1.5248199048       -0.1231965022
        1.5380081112       -0.1377144444
        1.5743999351       -0.1397265554
        1.5574732667       -0.1265011078
        1.4027794297        0.1222848281
        1.4753516476        0.0979246159
        1.4927058284        0.0868350617
        1.3840518070        0.1340576279
        1.3683823631        0.1413381466
        1.6474814100       -0.1191153599
        1.6300479470       -0.1087777427
        1.6107125067       -0.1437056910
        1.5925891290       -0.1327084560
        1.5757102141       -0.1180582063
        1.5588677679       -0.1056006605
        1.4214401958        0.1107992139
        1.4395349255        0.0991802450
        1.4572195016        0.0877542646
        1.7787009731        0.1443578608
        1.9160989336        0.1407788651
        1.8974505130        0.1347370557
        1.8738267775        0.1361491197
        1.8537295640        0.1360537546
        1.8309015805        0.1344768821
        1.8122232148        0.1407908283
        1.7447671079        0.1423043540
        1.8137032282        0.1233079674
        1.7962787666        0.1343341806
        1.7602883577        0.1345845345
        1.7953020905        0.1127168929
        1.7779005599        0.1234605457
        1.0229433146        0.1334183227
        1.0421483247        0.1206530129
        1.5471858712        0.1437657957
        1.5832371088        0.1401589384
        1.5995524725        0.1277305547
        1.5654076899        0.1329066192
        1.5992069588        0.1068181318
        1.5822231096        0.1186738357
        1.5107448605        0.1402968231
        1.5282900174        0.1329727194
        1.5466016143        0.1207375294
        1.5642420041        0.1085486978
        1.0185762405        0.1077552462
        1.3853886428        0.1108683851
        1.4033305993        0.0997029943
        1.3358536701        0.1443324660
        1.3682634052        0.1217545519
        1.3526288885        0.1340879056
        1.9700397546       -0.0161830407
        1.9524333632       -0.0053370992
        1.9521659831       -0.0266780345
        1.0173963557        0.0856474649
        1.2303904846        0.1443514106
        1.2628245065        0.1412553411
        1.2784005557        0.1340810492
        1.2468915265        0.1341793389
        1.2793609605        0.1114163184
        1.2623946854        0.1220795188
        1.1897676222        0.1443091477
        1.2095702158        0.1346935585
        1.2449341731        0.1116058400
        1.2278402668        0.1229054689
        1.4204374747       -0.1443818097
        1.4004239324       -0.1348355699
        1.2955019929        0.1443125076
        1.3155142825        0.1346093951
        1.3338381379        0.1225685495
        1.1173442197        0.1407503053
        1.1361674076        0.1351702425
        1.1554086146        0.1409692900
        1.1714010317        0.1342078430
        1.1901858758        0.1230363103
        1.2087016427        0.1120407052
        1.2265891607        0.1009296784
        1.2440798959        0.0899716092
        1.2968655520        0.1226641431
        1.2971140466        0.1004617829
        1.3151979699        0.1114942381
        1.3148973282        0.0895236027
        1.3329766984        0.1002362609
        1.3325279791        0.0786192501
        1.0829489681        0.1435741350
        1.1004246622        0.1333910771
        1.1183427795        0.1225362452
        1.1353967757        0.1134066640
        1.0399034889        0.0982173577
        1.0581904360       -0.1229215463
        1.0391821635       -0.1103563782
        1.0214240339       -0.0977047110
        1.0584997001       -0.1011021574
        1.0168850281       -0.0408410003
        1.0171055540       -0.0615317507
        1.0178709491       -0.0814837189
        1.0394477025       -0.0903530034
        1.0383064936       -0.0500233348
        1.0386585252       -0.0705364433
        1.0586338703       -0.0802480084
        1.2619429129        0.1004869344
        1.2793401757        0.0896984797
        1.2969605072        0.0789158829
        1.3145935101        0.0681465412
        1.3321863180        0.0573788266
        1.1529344196        0.1230714726
        1.1715000795        0.1121025105
        1.1530656889        0.1015960367
        1.1713226140        0.0905695279
        1.1899157462        0.1011901697
        1.1895404421        0.0797878136
        1.2615331921        0.0791460597
        1.2080598864        0.0903368470
        1.2258936576        0.0795118911
        1.2435464092        0.0687428717
        1.2611505838        0.0580091774
        1.2075672856        0.0690731130
        1.2254051767        0.0583548488
        1.2431227676        0.0476167261
        1.2607793113        0.0368538000
        1.2790815363        0.0684249512
        1.2787541544        0.0472823509
        1.0630778558        0.1330774292
        1.0811067771        0.1219192022
        1.0990391763        0.1112956412
        1.1168892181        0.1011402622
        1.1346901642        0.0906457419
        1.1527585172        0.0798941417
        1.1709895018        0.0692276650
        1.1891459849        0.0585920491
        1.2071447695        0.0479219120
        1.2249949964        0.0371888577
        1.2427381030        0.0263997338
        1.2604117736        0.0155754407
        1.2784028525        0.0260648018
        1.2780432041        0.0047381592
        1.0170229012        0.0642638749
        1.0389652257        0.0764905593
        1.0385396968        0.0551364109
        1.0168838095        0.0431149748
        1.0383189753        0.0339487570
        1.0381690957       -0.0291971309
        1.0168232473        0.0220523997
        1.0168151654       -0.0199442873
        1.0168015568        0.0010324864
        1.0381441039       -0.0082208325
        1.0381959451        0.0128362175
        1.0611207381        0.1103890392
        1.0598608333        0.0883975567
        1.0591805044        0.0668925910
        1.0587995506        0.0456235558
        1.0585699294        0.0244493364
        1.0584367797        0.0033194138
        1.0583848714       -0.0177566779
        1.0584074801       -0.0387379604
        1.0584978623       -0.0595745872
        1.2022873169       -0.1424231804
        1.1865990014       -0.1344841677
        1.0797572642        0.0999547621
        1.0979895631        0.0896971295
        1.1160526155        0.0794294094
        1.0788739396        0.0783718561
        1.0972963946        0.0682686618
        1.1155005522        0.0580692563
        1.0783333198        0.0570416364
        1.0968409209        0.0470195560
        1.1151099353        0.0368476139
        1.0779924048        0.0358343544
        1.0965334807        0.0258264344
        1.1148292104        0.0156306023
        1.0777739404        0.0146623711
        1.0963301486        0.0046318687
        1.1146348159       -0.0056001147
        1.1341504725        0.0690412196
        1.1337190732        0.0477576823
        1.1333744207        0.0265288462
        1.1331074774        0.0052675573
        1.1329088057       -0.0159936281
        1.0776466416       -0.0064878774
        1.0962068594       -0.0165422780
        1.1145064340       -0.0267892096
        1.1327634578       -0.0371790796
        1.1523700470        0.0585564114
        1.1706148984        0.0480186679
        1.1887609650        0.0374030197
        1.2067589337        0.0266931245
        1.2246173929        0.0159017847
        1.2423684199        0.0050627538
        1.2600467734       -0.0057862340
        1.2776841168       -0.0166136637
        1.1519970175        0.0373287432
        1.1702537780        0.0267823698
        1.1516716304        0.0160653841
        1.1699291190        0.0054680976
        1.1514023447       -0.0052404464
        1.1696451735       -0.0158636045
        1.0775898350       -0.0275805735
        1.0961349382       -0.0376423966
        1.1144180202       -0.0478893890
        1.1326582553       -0.0582773489
        1.1511844479       -0.0265103620
        1.1693965001       -0.0371149507
        1.1510079688       -0.0476750703
        1.1691752462       -0.0582571616
        1.0775721657       -0.0485755963
        1.0775480531       -0.0694980189
        1.0774574338       -0.0905670924
        1.0774998359       -0.1121830186
        1.0960753389       -0.0586635250
        1.1143520077       -0.0689762381
        1.0788348186       -0.1346010332
        1.0957674834       -0.1424882064
        1.1683867059       -0.1443883350
        1.0960006463       -0.0797561726
        1.1143432401       -0.0903550494
        1.0959815507       -0.1012568371
        1.1345741092       -0.1424985237
        1.0962291358       -0.1233769991
        1.1151117945       -0.1378271630
        1.1504457288       -0.1345346593
        1.2406804289       -0.1423701210
        1.1326045587       -0.0794487723
        1.1145237911       -0.1126375046
        1.1330224265       -0.1232580972
        1.1686047900       -0.1229124839
        1.2216191435       -0.1377507967
        1.1326695151       -0.1010336280
        1.1507007030       -0.1119193922
        1.1508676127       -0.0687880877
        1.2040312801       -0.1233403308
        1.1507683024       -0.0900918098
        1.1687892158       -0.1009122151
        1.1866508361       -0.1120106759
        1.1884002458        0.0161176606
        1.2063983833        0.0053538824
        1.2242565771       -0.0054699539
        1.1880687757       -0.0052385685
        1.1877638248       -0.0265648990
        1.1874784660       -0.0477790039
        1.1689749491       -0.0794272184
        1.2744276044       -0.1444057907
        1.1872026367       -0.0689247825
        1.2569754297       -0.1346113560
        1.2400759346       -0.1234763108
        1.2223213290       -0.1128440934
        1.1869241392       -0.0902312951
        1.2046516071       -0.1012547522
        1.2758354781       -0.1232869540
        1.2763675828       -0.1015118579
        1.2060574316       -0.0160153821
        1.2057303304       -0.0373062921
        1.2580808568       -0.1123923127
        1.2054071904       -0.0584873545
        1.2405242481       -0.1014988008
        1.2050650070       -0.0796996664
        1.2228167802       -0.0906463269
        1.2239064565       -0.0268170663
        1.2235619250       -0.0480563663
        1.2586111806       -0.0907401588
        1.2232098273       -0.0692404165
        1.2409359358       -0.0799866886
        1.2420067232       -0.0163080192
        1.2596868764       -0.0271208959
        1.2766964884       -0.0801581229
        1.2416517157       -0.0376019324
        1.2413001178       -0.0587846480
        1.2589888775       -0.0694821488
        1.2593356739       -0.0483423739
        1.2770054275       -0.0590292811
        1.2773348363       -0.0378825876
        1.6162905958        0.1399009577
        1.6335824771        0.1315959709
        1.6645786634       -0.1281699702
        1.6804659307       -0.1405372312
        1.3510234158        0.1110721471
        1.3681080429        0.0997908714
        1.3856035840        0.0888608708
        1.4033304414        0.0779458737
        1.3504361948        0.0891594671
        1.3678988867        0.0782409505
        1.3854840690        0.0674387394
        1.4031283549        0.0566335654
        1.5815394307        0.0965706224
        1.5988645948        0.0852430762
        1.3500786471        0.0677889682
        1.3676423162        0.0570067964
        1.3852417047        0.0462293330
        1.3497647154        0.0466076538
        1.3673534090        0.0358179199
        1.3849526046        0.0249924503
        1.4025518937        0.0141224944
        1.4213041817        0.0885487833
        1.4390821119        0.0774214463
        1.4567130215        0.0663843383
        1.2966801520        0.0577066973
        1.3142758326        0.0469658691
        1.3318620406        0.0361922634
        1.4028523685        0.0354084272
        1.4210557775        0.0670360156
        1.4387104873        0.0561157231
        1.4563184956        0.0451878519
        1.4747410903        0.0765914477
        1.4922571057        0.0656708414
        1.3494509730        0.0253862095
        1.3670480664        0.0145498809
        1.3846486783        0.0036871784
        1.4022456179       -0.0071914538
        1.6821393168       -0.1194533478
        1.6653352768       -0.1079593555
        1.6480810421       -0.0973526976
        1.6306565519       -0.0865454011
        1.4207628348        0.0457873554
        1.4383733834        0.0348890409
        1.4559705383        0.0239501008
        1.4204558205        0.0245297103
        1.4380506091        0.0136038177
        1.4556380153        0.0026538762
        1.2963530562        0.0365289361
        1.3139438768        0.0257405464
        1.3315347928        0.0149224110
        1.6165360944        0.1180068359
        1.6341852208        0.1068330357
        1.2960066206        0.0152520096
        1.3136037435        0.0044261718
        1.3312061889       -0.0063985689
        1.2956545952       -0.0060918241
        1.2953090053       -0.0273972445
        1.2949869549       -0.0485818218
        1.2947143669       -0.0696691532
        1.2945260489       -0.0908368662
        1.2944622933       -0.1123827109
        1.4742898323        0.0554314393
        1.4918610454        0.0445325918
        1.5108030228        0.1192393616
        1.5283928362        0.1088952655
        1.5105499173        0.0974670774
        1.5280958460        0.0866907466
        1.5101846932        0.0760388280
        1.5277288661        0.0652171216
        1.3132651358       -0.0168969539
        1.3308860799       -0.0276668793
        1.2945355197       -0.1347777081
        1.3148883168       -0.1443317261
        1.5098032765        0.0548350005
        1.5273508864        0.0439659829
        1.3800061939       -0.1443234536
        1.3129435835       -0.0381257773
        1.3126674149       -0.0592218769
        1.3124903717       -0.0802747986
        1.3125283624       -0.1015066101
        1.3474631725       -0.1411142120
        1.3130896550       -0.1231670094
        1.3317135284       -0.1341813369
        1.5094264474        0.0336304924
        1.5269726641        0.0226811043
        1.4201453287        0.0032177902