TITLE = "Visualization of the volumetric solution"
VARIABLES = "x","y","Density","Momentum_x","Momentum_y","Energy","Pressure","Temperature","Mach","C<sub>p</sub>","Roe_Dissipation"
ZONE NODES= 874, ELEMENTS= 1628, DATAPACKING=POINT, ZONETYPE=FEQUADRILATERAL
0.000000e+00	-1.190476e+00	1.223160e+00	4.964144e+01	-2.556204e+01	2.558370e+05	1.018250e+05	2.900023e+02	1.337160e-01	7.049769e-01	0.000000e+00	
6.125519e-02	-1.192712e+00	1.269399e+00	4.872553e+01	-6.776001e+01	2.689897e+05	1.064984e+05	2.922639e+02	1.918423e-01	7.293937e+00	0.000000e+00	
0.000000e+00	-1.130952e+00	1.221159e+00	5.729827e+01	-2.248889e+01	2.554014e+05	1.015400e+05	2.896647e+02	1.477354e-01	3.031840e-01	0.000000e+00	
7.772084e-02	-1.139189e+00	1.269648e+00	5.122881e+01	-7.573741e+01	2.697712e+05	1.065915e+05	2.924621e+02	2.100634e-01	7.425169e+00	0.000000e+00	
1.337729e-01	-1.200233e+00	1.270466e+00	5.193572e+01	-9.552623e+01	2.717110e+05	1.068233e+05	2.929093e+02	2.494466e-01	7.751944e+00	0.000000e+00	
4.924681e-02	-1.086043e+00	1.262045e+00	5.086733e+01	-5.961799e+01	2.665135e+05	1.056321e+05	2.915756e+02	1.814045e-01	6.072501e+00	0.000000e+00	
0.000000e+00	-1.071429e+00	1.222004e+00	5.479970e+01	-1.690907e+01	2.547187e+05	1.013492e+05	2.889202e+02	1.377261e-01	3.413195e-02	0.000000e+00	
1.178655e-01	-1.087760e+00	1.270553e+00	5.156036e+01	-8.938351e+01	2.711103e+05	1.067680e+05	2.927378e+02	2.367831e-01	7.674056e+00	0.000000e+00	
1.558119e-01	-1.143806e+00	1.272262e+00	5.165020e+01	-1.006571e+02	2.725563e+05	1.070104e+05	2.930081e+02	2.591391e-01	8.015797e+00	0.000000e+00	
1.991378e-01	-1.202461e+00	1.274663e+00	5.130670e+01	-1.095691e+02	2.739077e+05	1.072664e+05	2.931558e+02	2.765310e-01	8.376667e+00	0.000000e+00	
4.028583e-02	-1.037472e+00	1.259477e+00	5.033066e+01	-5.006521e+01	2.651547e+05	1.052616e+05	2.911454e+02	1.647814e-01	5.550171e+00	0.000000e+00	
8.814058e-02	-1.034497e+00	1.266138e+00	5.162023e+01	-7.847528e+01	2.691326e+05	1.062594e+05	2.923591e+02	2.164315e-01	6.956910e+00	0.000000e+00	
0.000000e+00	-1.011905e+00	1.224338e+00	5.312511e+01	-1.663819e+01	2.552103e+05	1.015779e+05	2.890201e+02	1.334148e-01	3.564909e-01	0.000000e+00	
1.509261e-01	-1.034958e+00	1.274399e+00	5.084089e+01	-9.967021e+01	2.729200e+05	1.072033e+05	2.930441e+02	2.558368e-01	8.287797e+00	0.000000e+00	
1.845955e-01	-1.089328e+00	1.275253e+00	5.110973e+01	-1.068885e+02	2.737731e+05	1.073078e+05	2.931333e+02	2.706854e-01	8.435022e+00	0.000000e+00	
2.216875e-01	-1.145461e+00	1.275270e+00	5.118158e+01	-1.125581e+02	2.743354e+05	1.073364e+05	2.932076e+02	2.824550e-01	8.475426e+00	0.000000e+00	
2.605594e-01	-1.203198e+00	1.275265e+00	5.117829e+01	-1.166302e+02	2.747359e+05	1.073503e+05	2.932466e+02	2.909269e-01	8.494987e+00	0.000000e+00	
5.064252e-02	-9.804358e-01	1.261671e+00	5.079466e+01	-5.848418e+01	2.664672e+05	1.056357e+05	2.916722e+02	1.793293e-01	6.077603e+00	0.000000e+00	
1.187048e-01	-9.809433e-01	1.271822e+00	5.055852e+01	-8.993027e+01	2.714838e+05	1.069198e+05	2.928613e+02	2.364495e-01	7.888008e+00	0.000000e+00	
0.000000e+00	-9.523810e-01	1.224055e+00	5.253369e+01	-1.833342e+01	2.552552e+05	1.015963e+05	2.891394e+02	1.333492e-01	3.824384e-01	0.000000e+00	
1.815403e-01	-9.825609e-01	1.273754e+00	5.096363e+01	-1.060005e+02	2.734417e+05	1.072046e+05	2.931963e+02	2.689992e-01	8.289634e+00	0.000000e+00	
2.136907e-01	-1.035845e+00	1.274482e+00	5.116012e+01	-1.110907e+02	2.740898e+05	1.072885e+05	2.932580e+02	2.795352e-01	8.407930e+00	0.000000e+00	
2.474856e-01	-1.090150e+00	1.275035e+00	5.120140e+01	-1.150724e+02	2.745769e+05	1.073425e+05	2.932783e+02	2.877299e-01	8.484000e+00	0.000000e+00	
2.832427e-01	-1.146057e+00	1.275477e+00	5.109289e+01	-1.181192e+02	2.749535e+05	1.073843e+05	2.932908e+02	2.938961e-01	8.542945e+00	0.000000e+00	
3.203374e-01	-1.203475e+00	1.275783e+00	5.099412e+01	-1.202314e+02	2.752149e+05	1.074122e+05	2.932966e+02	2.981669e-01	8.582242e+00	0.000000e+00	
8.913715e-02	-9.240374e-01	1.265615e+00	5.067422e+01	-7.880411e+01	2.691488e+05	1.062724e+05	2.925157e+02	2.159096e-01	6.975239e+00	0.000000e+00	
4.409172e-02	-9.215285e-01	1.257582e+00	4.935051e+01	-5.198070e+01	2.650423e+05	1.051999e+05	2.914133e+02	1.665462e-01	5.463148e+00	0.000000e+00	
1.504155e-01	-9.295213e-01	1.273843e+00	5.050112e+01	-9.949704e+01	2.728191e+05	1.071729e+05	2.930891e+02	2.552235e-01	8.244953e+00	0.000000e+00	
0.000000e+00	-8.928571e-01	1.224810e+00	5.238999e+01	-2.041229e+01	2.556572e+05	1.017467e+05	2.893888e+02	1.346106e-01	5.945063e-01	0.000000e+00	
2.116287e-01	-9.313374e-01	1.274852e+00	5.089382e+01	-1.109981e+02	2.741096e+05	1.073046e+05	2.932168e+02	2.790272e-01	8.430602e+00	0.000000e+00	
2.427455e-01	-9.834769e-01	1.275620e+00	5.089483e+01	-1.146488e+02	2.746364e+05	1.073876e+05	2.932668e+02	2.864353e-01	8.547577e+00	0.000000e+00	
2.746844e-01	-1.036348e+00	1.275887e+00	5.098910e+01	-1.174344e+02	2.749667e+05	1.074174e+05	2.932869e+02	2.922750e-01	8.589558e+00	0.000000e+00	
3.080198e-01	-1.090474e+00	1.275934e+00	5.103385e+01	-1.195371e+02	2.751778e+05	1.074231e+05	2.932917e+02	2.967110e-01	8.597616e+00	0.000000e+00	
3.430232e-01	-1.146254e+00	1.275998e+00	5.100559e+01	-1.211072e+02	2.753398e+05	1.074292e+05	2.932938e+02	2.999698e-01	8.606295e+00	0.000000e+00	
3.794673e-01	-1.203603e+00	1.276082e+00	5.095579e+01	-1.222081e+02	2.754586e+05	1.074358e+05	2.932923e+02	3.022245e-01	8.615494e+00	0.000000e+00	
1.192443e-01	-8.783126e-01	1.270007e+00	5.068791e+01	-9.096832e+01	2.711750e+05	1.067622e+05	2.928477e+02	2.390170e-01	7.665896e+00	0.000000e+00	
6.211042e-02	-8.747950e-01	1.265036e+00	4.951440e+01	-6.278483e+01	2.675232e+05	1.059985e+05	2.918953e+02	1.845474e-01	6.589057e+00	0.000000e+00	
1.807153e-01	-8.799036e-01	1.274363e+00	5.074344e+01	-1.061120e+02	2.735209e+05	1.072371e+05	2.931449e+02	2.689063e-01	8.335473e+00	0.000000e+00	
0.000000e+00	-8.333333e-01	1.225849e+00	5.283507e+01	-2.330954e+01	2.561369e+05	1.019107e+05	2.896097e+02	1.380854e-01	8.257497e-01	0.000000e+00	
2.413025e-01	-8.807305e-01	1.275506e+00	5.092086e+01	-1.146087e+02	2.745539e+05	1.073554e+05	2.932051e+02	2.864314e-01	8.502177e+00	0.000000e+00	
2.718915e-01	-9.320399e-01	1.275833e+00	5.095433e+01	-1.172259e+02	2.748899e+05	1.073948e+05	2.932376e+02	2.918437e-01	8.557688e+00	0.000000e+00	
3.027302e-01	-9.838479e-01	1.275908e+00	5.101347e+01	-1.191802e+02	2.751060e+05	1.074080e+05	2.932564e+02	2.959674e-01	8.576353e+00	0.000000e+00	
3.343804e-01	-1.036513e+00	1.276048e+00	5.104110e+01	-1.206868e+02	2.752863e+05	1.074233e+05	2.932661e+02	2.991193e-01	8.597973e+00	0.000000e+00	
3.673922e-01	-1.090546e+00	1.276149e+00	5.102978e+01	-1.218383e+02	2.754194e+05	1.074332e+05	2.932699e+02	3.015064e-01	8.611883e+00	0.000000e+00	
4.020939e-01	-1.146303e+00	1.276258e+00	5.099214e+01	-1.227062e+02	2.755254e+05	1.074431e+05	2.932721e+02	3.032747e-01	8.625909e+00	0.000000e+00	
4.383617e-01	-1.203683e+00	1.276341e+00	5.095184e+01	-1.233111e+02	2.755992e+05	1.074502e+05	2.932721e+02	3.044949e-01	8.635845e+00	0.000000e+00	
1.497484e-01	-8.294679e-01	1.273108e+00	5.077664e+01	-9.965840e+01	2.726218e+05	1.070834e+05	2.930134e+02	2.560189e-01	8.118742e+00	0.000000e+00	
1.005299e-01	-8.329062e-01	1.267809e+00	5.126287e+01	-8.339108e+01	2.700290e+05	1.065000e+05	2.926349e+02	2.251444e-01	7.296219e+00	0.000000e+00	
5.710403e-02	-8.046601e-01	1.263743e+00	4.927821e+01	-6.083980e+01	2.671173e+05	1.058768e+05	2.918586e+02	1.808965e-01	6.417552e+00	0.000000e+00	
2.104427e-01	-8.297387e-01	1.274989e+00	5.091272e+01	-1.110513e+02	2.740837e+05	1.072924e+05	2.931520e+02	2.791569e-01	8.413353e+00	0.000000e+00	
0.000000e+00	-7.738095e-01	1.222940e+00	5.314915e+01	-2.165407e+01	2.554817e+05	1.016540e+05	2.895675e+02	1.375673e-01	4.638688e-01	0.000000e+00	
2.708649e-01	-8.301485e-01	1.275859e+00	5.099592e+01	-1.172834e+02	2.748755e+05	1.073863e+05	2.932084e+02	2.920104e-01	8.545758e+00	0.000000e+00	
3.011206e-01	-8.810891e-01	1.276097e+00	5.098922e+01	-1.192058e+02	2.751192e+05	1.074131e+05	2.932271e+02	2.959704e-01	8.583564e+00	0.000000e+00	
3.313459e-01	-9.322566e-01	1.276258e+00	5.099992e+01	-1.206372e+02	2.752979e+05	1.074309e+05	2.932387e+02	2.989434e-01	8.608695e+00	0.000000e+00	
3.619359e-01	-9.839159e-01	1.276363e+00	5.100748e+01	-1.217096e+02	2.754290e+05	1.074428e+05	2.932469e+02	3.011771e-01	8.625364e+00	0.000000e+00	
3.934023e-01	-1.036498e+00	1.276409e+00	5.101876e+01	-1.225281e+02	2.755215e+05	1.074484e+05	2.932515e+02	3.028974e-01	8.633262e+00	0.000000e+00	
4.262807e-01	-1.090512e+00	1.276415e+00	5.101311e+01	-1.231448e+02	2.755850e+05	1.074501e+05	2.932550e+02	3.041890e-01	8.635756e+00	0.000000e+00	
4.609124e-01	-1.146300e+00	1.276444e+00	5.099260e+01	-1.236085e+02	2.756384e+05	1.074540e+05	2.932588e+02	3.051400e-01	8.641148e+00	0.000000e+00	
4.971822e-01	-1.203748e+00	1.276481e+00	5.096725e+01	-1.239334e+02	2.756791e+05	1.074581e+05	2.932616e+02	3.057932e-01	8.646981e+00	0.000000e+00	
1.078093e-01	-7.769395e-01	1.268311e+00	5.110444e+01	-8.700140e+01	2.704266e+05	1.065652e+05	2.926981e+02	2.319576e-01	7.388101e+00	0.000000e+00	
1.782231e-01	-7.785095e-01	1.274920e+00	5.070182e+01	-1.059433e+02	2.735556e+05	1.072582e+05	2.930746e+02	2.684323e-01	8.365203e+00	0.000000e+00	
5.725992e-02	-7.479271e-01	1.265342e+00	4.970692e+01	-6.033885e+01	2.674040e+05	1.059956e+05	2.918169e+02	1.804114e-01	6.585055e+00	0.000000e+00	
2.403188e-01	-7.792474e-01	1.275298e+00	5.109717e+01	-1.146371e+02	2.744953e+05	1.073277e+05	2.931774e+02	2.867148e-01	8.463182e+00	0.000000e+00	
0.000000e+00	-7.142857e-01	1.223723e+00	5.352834e+01	-2.206745e+01	2.556494e+05	1.017119e+05	2.895468e+02	1.387002e-01	5.454492e-01	0.000000e+00	
3.004768e-01	-7.795293e-01	1.276146e+00	5.111021e+01	-1.193067e+02	2.751353e+05	1.074139e+05	2.932181e+02	2.962841e-01	8.584716e+00	0.000000e+00	
3.304266e-01	-8.303034e-01	1.276218e+00	5.107907e+01	-1.206947e+02	2.752918e+05	1.074250e+05	2.932316e+02	2.991475e-01	8.600310e+00	0.000000e+00	
3.603027e-01	-8.811583e-01	1.276301e+00	5.105984e+01	-1.217188e+02	2.754144e+05	1.074356e+05	2.932414e+02	3.012599e-01	8.615269e+00	0.000000e+00	
3.902972e-01	-9.322421e-01	1.276365e+00	5.105354e+01	-1.224859e+02	2.755064e+05	1.074433e+05	2.932478e+02	3.028513e-01	8.626111e+00	0.000000e+00	
4.207521e-01	-9.838421e-01	1.276400e+00	5.104946e+01	-1.230657e+02	2.755732e+05	1.074478e+05	2.932523e+02	3.040590e-01	8.632542e+00	0.000000e+00	
4.521477e-01	-1.036404e+00	1.276439e+00	5.104084e+01	-1.235127e+02	2.756272e+05	1.074524e+05	2.932555e+02	3.049827e-01	8.638919e+00	0.000000e+00	
4.850054e-01	-1.090438e+00	1.276463e+00	5.102335e+01	-1.238501e+02	2.756671e+05	1.074556e+05	2.932589e+02	3.056720e-01	8.643452e+00	0.000000e+00	
5.196612e-01	-1.146277e+00	1.276492e+00	5.100208e+01	-1.241021e+02	2.757004e+05	1.074595e+05	2.932629e+02	3.061762e-01	8.648999e+00	0.000000e+00	
5.559885e-01	-1.203804e+00	1.276520e+00	5.098221e+01	-1.242764e+02	2.757256e+05	1.074632e+05	2.932667e+02	3.065182e-01	8.654226e+00	0.000000e+00	
1.493695e-01	-7.268116e-01	1.274247e+00	5.061520e+01	-1.001273e+02	2.728486e+05	1.071638e+05	2.929712e+02	2.565977e-01	8.232045e+00	0.000000e+00	
2.099994e-01	-7.283609e-01	1.274707e+00	5.126216e+01	-1.111225e+02	2.740313e+05	1.072628e+05	2.931359e+02	2.797078e-01	8.371659e+00	0.000000e+00	
1.000749e-01	-7.205486e-01	1.265817e+00	5.097757e+01	-8.336504e+01	2.695067e+05	1.062940e+05	2.925284e+02	2.251450e-01	7.005766e+00	0.000000e+00	
6.210353e-02	-6.805846e-01	1.265790e+00	4.916646e+01	-6.302201e+01	2.676162e+05	1.060370e+05	2.918275e+02	1.843940e-01	6.643383e+00	0.000000e+00	
2.704441e-01	-7.288067e-01	1.276041e+00	5.117318e+01	-1.174045e+02	2.749223e+05	1.073981e+05	2.931988e+02	2.923887e-01	8.562373e+00	0.000000e+00	
0.000000e+00	-6.547619e-01	1.223197e+00	5.179353e+01	-2.054351e+01	2.552440e+05	1.015900e+05	2.893243e+02	1.335874e-01	3.736170e-01	0.000000e+00	
3.300413e-01	-7.288806e-01	1.276164e+00	5.121616e+01	-1.207083e+02	2.752913e+05	1.074219e+05	2.932358e+02	2.993089e-01	8.596012e+00	0.000000e+00	
3.597632e-01	-7.795562e-01	1.276267e+00	5.115979e+01	-1.217629e+02	2.754194e+05	1.074342e+05	2.932454e+02	3.014470e-01	8.613332e+00	0.000000e+00	
3.894300e-01	-8.302721e-01	1.276353e+00	5.111822e+01	-1.225314e+02	2.755156e+05	1.074442e+05	2.932529e+02	3.030041e-01	8.627346e+00	0.000000e+00	
4.191199e-01	-8.810784e-01	1.276403e+00	5.109334e+01	-1.230949e+02	2.755841e+05	1.074503e+05	2.932584e+02	3.041551e-01	8.636070e+00	0.000000e+00	
4.490113e-01	-9.321257e-01	1.276438e+00	5.107728e+01	-1.235149e+02	2.756348e+05	1.074548e+05	2.932624e+02	3.050161e-01	8.642277e+00	0.000000e+00	
4.794222e-01	-9.837082e-01	1.276456e+00	5.106378e+01	-1.238292e+02	2.756714e+05	1.074574e+05	2.932656e+02	3.056612e-01	8.646078e+00	0.000000e+00	
5.108160e-01	-1.036276e+00	1.276470e+00	5.105065e+01	-1.240679e+02	2.756992e+05	1.074595e+05	2.932681e+02	3.061488e-01	8.649026e+00	0.000000e+00	
5.437050e-01	-1.090338e+00	1.276477e+00	5.103329e+01	-1.242453e+02	2.757198e+05	1.074612e+05	2.932710e+02	3.065049e-01	8.651374e+00	0.000000e+00	
5.784158e-01	-1.146231e+00	1.276493e+00	5.101407e+01	-1.243757e+02	2.757382e+05	1.074638e+05	2.932744e+02	3.067579e-01	8.655059e+00	0.000000e+00	
6.148064e-01	-1.203843e+00	1.276514e+00	5.099732e+01	-1.244646e+02	2.757536e+05	1.074668e+05	2.932777e+02	3.069242e-01	8.659312e+00	0.000000e+00	
1.795675e-01	-6.781294e-01	1.274045e+00	5.140023e+01	-1.063988e+02	2.734281e+05	1.071794e+05	2.930602e+02	2.702542e-01	8.254045e+00	0.000000e+00	
1.186510e-01	-6.779649e-01	1.270627e+00	5.122046e+01	-9.146758e+01	2.712842e+05	1.067839e+05	2.927642e+02	2.405305e-01	7.696386e+00	0.000000e+00	
2.402237e-01	-6.782817e-01	1.275724e+00	5.126384e+01	-1.147433e+02	2.745907e+05	1.073602e+05	2.931683e+02	2.870001e-01	8.508990e+00	0.000000e+00	
4.273980e-02	-6.286916e-01	1.261871e+00	4.833933e+01	-5.290084e+01	2.659425e+05	1.055631e+05	2.914256e+02	1.659399e-01	5.975246e+00	0.000000e+00	
3.001873e-01	-6.782723e-01	1.276046e+00	5.126844e+01	-1.192639e+02	2.751212e+05	1.074072e+05	2.932225e+02	2.963578e-01	8.575171e+00	0.000000e+00	
8.757344e-02	-6.317087e-01	1.264769e+00	5.247798e+01	-7.930184e+01	2.689887e+05	1.061656e+05	2.924170e+02	2.193249e-01	6.824648e+00	0.000000e+00	
0.000000e+00	-5.952381e-01	1.222460e+00	5.263119e+01	-1.539638e+01	2.549275e+05	1.014790e+05	2.891826e+02	1.315842e-01	2.171775e-01	0.000000e+00	
3.890643e-01	-7.288012e-01	1.276373e+00	5.121141e+01	-1.225702e+02	2.755354e+05	1.074491e+05	2.932619e+02	3.031584e-01	8.634326e+00	0.000000e+00	
3.594554e-01	-6.781701e-01	1.276336e+00	5.125281e+01	-1.217920e+02	2.754503e+05	1.074441e+05	2.932567e+02	3.015685e-01	8.627320e+00	0.000000e+00	
4.186159e-01	-7.794575e-01	1.276389e+00	5.117628e+01	-1.231353e+02	2.755959e+05	1.074522e+05	2.932665e+02	3.043118e-01	8.638617e+00	0.000000e+00	
4.481631e-01	-8.301470e-01	1.276405e+00	5.114751e+01	-1.235475e+02	2.756413e+05	1.074549e+05	2.932703e+02	3.051499e-01	8.642454e+00	0.000000e+00	
4.777876e-01	-8.809307e-01	1.276419e+00	5.112377e+01	-1.238500e+02	2.756754e+05	1.074572e+05	2.932735e+02	3.057621e-01	8.645762e+00	0.000000e+00	
5.076593e-01	-9.319619e-01	1.276433e+00	5.110413e+01	-1.240748e+02	2.757016e+05	1.074593e+05	2.932759e+02	3.062147e-01	8.648680e+00	0.000000e+00	
5.380853e-01	-9.835367e-01	1.276444e+00	5.108575e+01	-1.242423e+02	2.757212e+05	1.074609e+05	2.932779e+02	3.065486e-01	8.651003e+00	0.000000e+00	
5.695188e-01	-1.036107e+00	1.276458e+00	5.106758e+01	-1.243684e+02	2.757372e+05	1.074628e+05	2.932795e+02	3.067946e-01	8.653579e+00	0.000000e+00	
6.024616e-01	-1.090187e+00	1.276472e+00	5.104790e+01	-1.244604e+02	2.757498e+05	1.074646e+05	2.932812e+02	3.069675e-01	8.656105e+00	0.000000e+00	
6.372248e-01	-1.146124e+00	1.276491e+00	5.102843e+01	-1.245258e+02	2.757612e+05	1.074669e+05	2.932832e+02	3.070830e-01	8.659423e+00	0.000000e+00	
6.736503e-01	-1.203831e+00	1.276515e+00	5.101269e+01	-1.245683e+02	2.757713e+05	1.074696e+05	2.932852e+02	3.071525e-01	8.663224e+00	0.000000e+00	
1.475798e-01	-6.289709e-01	1.273654e+00	5.163013e+01	-9.968944e+01	2.726932e+05	1.070982e+05	2.929280e+02	2.569020e-01	8.139531e+00	0.000000e+00	
2.091919e-01	-6.281306e-01	1.275164e+00	5.143328e+01	-1.109764e+02	2.741027e+05	1.072945e+05	2.931176e+02	2.794773e-01	8.416396e+00	0.000000e+00	
2.699550e-01	-6.277900e-01	1.275970e+00	5.132000e+01	-1.172740e+02	2.749067e+05	1.073941e+05	2.932044e+02	2.922633e-01	8.556834e+00	0.000000e+00	
4.741789e-02	-5.813061e-01	1.262344e+00	5.110926e+01	-5.798841e+01	2.666247e+05	1.057033e+05	2.917031e+02	1.788402e-01	6.172855e+00	0.000000e+00	
3.296921e-01	-6.275796e-01	1.276270e+00	5.130896e+01	-1.207200e+02	2.753311e+05	1.074362e+05	2.932503e+02	2.993839e-01	8.616059e+00	0.000000e+00	
1.113270e-01	-5.796689e-01	1.269752e+00	5.233124e+01	-8.886324e+01	2.708444e+05	1.066626e+05	2.926332e+02	2.368339e-01	7.525441e+00	0.000000e+00	
0.000000e+00	-5.357143e-01	1.223925e+00	5.537868e+01	-1.755160e+01	2.553170e+05	1.015753e+05	2.891104e+02	1.392490e-01	3.529470e-01	0.000000e+00	
4.478028e-01	-7.286571e-01	1.276408e+00	5.123555e+01	-1.235749e+02	2.756561e+05	1.074583e+05	2.932790e+02	3.052792e-01	8.647321e+00	0.000000e+00	
4.183050e-01	-6.780231e-01	1.276391e+00	5.127809e+01	-1.231542e+02	2.756119e+05	1.074562e+05	2.932772e+02	3.044350e-01	8.644320e+00	0.000000e+00	
3.887572e-01	-6.274006e-01	1.276382e+00	5.132645e+01	-1.225793e+02	2.755545e+05	1.074546e+05	2.932748e+02	3.032700e-01	8.642076e+00	0.000000e+00	
4.772920e-01	-7.793014e-01	1.276424e+00	5.119878e+01	-1.238819e+02	2.756890e+05	1.074602e+05	2.932805e+02	3.058897e-01	8.650025e+00	0.000000e+00	
5.068148e-01	-8.299739e-01	1.276438e+00	5.116841e+01	-1.241054e+02	2.757136e+05	1.074619e+05	2.932817e+02	3.063307e-01	8.652355e+00	0.000000e+00	
5.364529e-01	-8.807377e-01	1.276449e+00	5.114319e+01	-1.242679e+02	2.757314e+05	1.074631e+05	2.932827e+02	3.066487e-01	8.654068e+00	0.000000e+00	
5.663726e-01	-9.317461e-01	1.276458e+00	5.112147e+01	-1.243868e+02	2.757447e+05	1.074642e+05	2.932834e+02	3.068782e-01	8.655560e+00	0.000000e+00	
5.968681e-01	-9.832958e-01	1.276467e+00	5.110147e+01	-1.244734e+02	2.757546e+05	1.074651e+05	2.932839e+02	3.070412e-01	8.656864e+00	0.000000e+00	
6.283716e-01	-1.035841e+00	1.276479e+00	5.108241e+01	-1.245365e+02	2.757627e+05	1.074662e+05	2.932842e+02	3.071548e-01	8.658460e+00	0.000000e+00	
6.613607e-01	-1.089904e+00	1.276494e+00	5.106301e+01	-1.245806e+02	2.757697e+05	1.074676e+05	2.932846e+02	3.072274e-01	8.660440e+00	0.000000e+00	
6.961191e-01	-1.145857e+00	1.276513e+00	5.104385e+01	-1.246098e+02	2.757765e+05	1.074696e+05	2.932854e+02	3.072672e-01	8.663150e+00	0.000000e+00	
7.324964e-01	-1.203690e+00	1.276538e+00	5.102860e+01	-1.246269e+02	2.757835e+05	1.074720e+05	2.932865e+02	3.072838e-01	8.666575e+00	0.000000e+00	
1.761715e-01	-5.781454e-01	1.274555e+00	5.147949e+01	-1.053446e+02	2.734328e+05	1.072159e+05	2.930427e+02	2.680656e-01	8.305510e+00	0.000000e+00	
2.388485e-01	-5.774051e-01	1.275696e+00	5.137549e+01	-1.144650e+02	2.745719e+05	1.073608e+05	2.931762e+02	2.865265e-01	8.509830e+00	0.000000e+00	
2.995771e-01	-5.770297e-01	1.276168e+00	5.136688e+01	-1.192312e+02	2.751655e+05	1.074248e+05	2.932425e+02	2.963394e-01	8.600011e+00	0.000000e+00	
6.592765e-02	-5.300999e-01	1.268362e+00	5.159985e+01	-7.007243e+01	2.688669e+05	1.063527e+05	2.921028e+02	2.002467e-01	7.088475e+00	0.000000e+00	
3.590860e-01	-5.767919e-01	1.276370e+00	5.137743e+01	-1.217915e+02	2.754757e+05	1.074524e+05	2.932714e+02	3.016624e-01	8.638919e+00	0.000000e+00	
1.400438e-01	-5.278440e-01	1.271954e+00	5.190397e+01	-9.676453e+01	2.720749e+05	1.069341e+05	2.928702e+02	2.516338e-01	7.908206e+00	0.000000e+00	
3.296455e-02	-4.762683e-01	1.256923e+00	5.149682e+01	-4.859355e+01	2.646219e+05	1.050510e+05	2.911535e+02	1.646802e-01	5.253307e+00	0.000000e+00	
5.064470e-01	-7.284785e-01	1.276474e+00	5.124392e+01	-1.241266e+02	2.757303e+05	1.074666e+05	2.932865e+02	3.064301e-01	8.659020e+00	0.000000e+00	
4.769741e-01	-6.778531e-01	1.276475e+00	5.127934e+01	-1.238978e+02	2.757103e+05	1.074669e+05	2.932870e+02	3.059779e-01	8.659456e+00	0.000000e+00	
4.475002e-01	-6.272260e-01	1.276478e+00	5.131893e+01	-1.235809e+02	2.756820e+05	1.074673e+05	2.932874e+02	3.053438e-01	8.659953e+00	0.000000e+00	
4.179945e-01	-5.766002e-01	1.276479e+00	5.135978e+01	-1.231431e+02	2.756416e+05	1.074674e+05	2.932875e+02	3.044569e-01	8.660106e+00	0.000000e+00	
5.359492e-01	-7.791025e-01	1.276474e+00	5.121251e+01	-1.242914e+02	2.757446e+05	1.074664e+05	2.932859e+02	3.067506e-01	8.658762e+00	0.000000e+00	
5.655291e-01	-8.297420e-01	1.276478e+00	5.118494e+01	-1.244100e+02	2.757552e+05	1.074665e+05	2.932852e+02	3.069763e-01	8.658869e+00	0.000000e+00	
5.952748e-01	-8.804585e-01	1.276484e+00	5.116042e+01	-1.244950e+02	2.757631e+05	1.074668e+05	2.932845e+02	3.071334e-01	8.659204e+00	0.000000e+00	
6.253380e-01	-9.314052e-01	1.276492e+00	5.113827e+01	-1.245559e+02	2.757693e+05	1.074672e+05	2.932839e+02	3.072410e-01	8.659862e+00	0.000000e+00	
6.559649e-01	-9.828808e-01	1.276503e+00	5.111745e+01	-1.245986e+02	2.757741e+05	1.074679e+05	2.932832e+02	3.073111e-01	8.660754e+00	0.000000e+00	
6.875261e-01	-1.035344e+00	1.276516e+00	5.109777e+01	-1.246279e+02	2.757786e+05	1.074688e+05	2.932829e+02	3.073529e-01	8.662130e+00	0.000000e+00	
7.204717e-01	-1.089322e+00	1.276530e+00	5.107817e+01	-1.246463e+02	2.757827e+05	1.074701e+05	2.932830e+02	3.073712e-01	8.663940e+00	0.000000e+00	
7.550260e-01	-1.145221e+00	1.276547e+00	5.105908e+01	-1.246561e+02	2.757872e+05	1.074719e+05	2.932839e+02	3.073708e-01	8.666410e+00	0.000000e+00	
7.911598e-01	-1.203221e+00	1.276567e+00	5.104332e+01	-1.246593e+02	2.757921e+05	1.074740e+05	2.932852e+02	3.073585e-01	8.669431e+00	0.000000e+00	
2.063768e-01	-5.269342e-01	1.275733e+00	5.135053e+01	-1.104210e+02	2.741856e+05	1.073494e+05	2.931365e+02	2.781136e-01	8.493684e+00	0.000000e+00	
2.688695e-01	-5.264689e-01	1.275919e+00	5.146930e+01	-1.171595e+02	2.749131e+05	1.073984e+05	2.932277e+02	2.921608e-01	8.562803e+00	0.000000e+00	
3.291857e-01	-5.261855e-01	1.276392e+00	5.142285e+01	-1.207079e+02	2.753746e+05	1.074524e+05	2.932665e+02	2.994234e-01	8.638998e+00	0.000000e+00	
1.034428e-01	-4.762907e-01	1.269391e+00	5.200231e+01	-8.461279e+01	2.704286e+05	1.066174e+05	2.925924e+02	2.281609e-01	7.461679e+00	0.000000e+00	
0.000000e+00	-4.761905e-01	1.220324e+00	5.197012e+01	-1.032044e+01	2.539190e+05	1.011075e+05	2.886281e+02	1.274850e-01	-3.066451e-01	0.000000e+00	
3.884149e-01	-5.259755e-01	1.276470e+00	5.140150e+01	-1.225413e+02	2.755828e+05	1.074664e+05	2.932867e+02	3.032294e-01	8.658653e+00	0.000000e+00	
1.728825e-01	-4.760883e-01	1.275179e+00	5.133526e+01	-1.045899e+02	2.735140e+05	1.072766e+05	2.930650e+02	2.662303e-01	8.391073e+00	0.000000e+00	
6.545482e-02	-4.228226e-01	1.267765e+00	5.071546e+01	-6.889069e+01	2.686547e+05	1.063074e+05	2.921159e+02	1.969385e-01	7.024661e+00	0.000000e+00	
0.000000e+00	-4.166667e-01	1.225096e+00	5.506177e+01	-1.710802e+01	2.555009e+05	1.016576e+05	2.890680e+02	1.380839e-01	4.689704e-01	0.000000e+00	
5.651257e-01	-7.282484e-01	1.276530e+00	5.124864e+01	-1.244213e+02	2.757704e+05	1.074712e+05	2.932862e+02	3.070426e-01	8.665496e+00	0.000000e+00	
5.356082e-01	-6.776564e-01	1.276532e+00	5.127859e+01	-1.242946e+02	2.757615e+05	1.074721e+05	2.932882e+02	3.067997e-01	8.666805e+00	0.000000e+00	
5.061330e-01	-6.270438e-01	1.276538e+00	5.130962e+01	-1.241181e+02	2.757490e+05	1.074735e+05	2.932904e+02	3.064519e-01	8.668715e+00	0.000000e+00	
4.766693e-01	-5.764200e-01	1.276548e+00	5.133943e+01	-1.238745e+02	2.757308e+05	1.074752e+05	2.932928e+02	3.059606e-01	8.671161e+00	0.000000e+00	
4.471936e-01	-5.257913e-01	1.276565e+00	5.136486e+01	-1.235408e+02	2.757051e+05	1.074775e+05	2.932953e+02	3.052745e-01	8.674396e+00	0.000000e+00	
5.947337e-01	-7.788131e-01	1.276530e+00	5.122082e+01	-1.245113e+02	2.757764e+05	1.074706e+05	2.932845e+02	3.072093e-01	8.664598e+00	0.000000e+00	
6.245056e-01	-8.293623e-01	1.276532e+00	5.119550e+01	-1.245746e+02	2.757807e+05	1.074702e+05	2.932830e+02	3.073212e-01	8.664079e+00	0.000000e+00	
6.545290e-01	-8.799588e-01	1.276535e+00	5.117237e+01	-1.246183e+02	2.757836e+05	1.074701e+05	2.932818e+02	3.073932e-01	8.663873e+00	0.000000e+00	
6.848829e-01	-9.307646e-01	1.276540e+00	5.115089e+01	-1.246477e+02	2.757858e+05	1.074702e+05	2.932810e+02	3.074358e-01	8.664022e+00	0.000000e+00	
7.156497e-01	-9.820872e-01	1.276546e+00	5.113064e+01	-1.246661e+02	2.757879e+05	1.074706e+05	2.932808e+02	3.074560e-01	8.664609e+00	0.000000e+00	
7.470785e-01	-1.034387e+00	1.276551e+00	5.111103e+01	-1.246762e+02	2.757898e+05	1.074713e+05	2.932815e+02	3.074587e-01	8.665618e+00	0.000000e+00	
7.797762e-01	-1.088161e+00	1.276559e+00	5.109189e+01	-1.246804e+02	2.757924e+05	1.074725e+05	2.932829e+02	3.074483e-01	8.667279e+00	0.000000e+00	
8.134941e-01	-1.143761e+00	1.276568e+00	5.107259e+01	-1.246793e+02	2.757951e+05	1.074740e+05	2.932848e+02	3.074259e-01	8.669382e+00	0.000000e+00	
8.488957e-01	-1.201868e+00	1.276586e+00	5.105694e+01	-1.246757e+02	2.757993e+05	1.074761e+05	2.932865e+02	3.073997e-01	8.672356e+00	0.000000e+00	
2.375247e-01	-4.758091e-01	1.275651e+00	5.155113e+01	-1.142489e+02	2.745770e+05	1.073677e+05	2.932056e+02	2.862372e-01	8.519532e+00	0.000000e+00	
2.989788e-01	-4.755578e-01	1.276375e+00	5.145936e+01	-1.192021e+02	2.752237e+05	1.074481e+05	2.932585e+02	2.963059e-01	8.632843e+00	0.000000e+00	
3.587163e-01	-4.753470e-01	1.276455e+00	5.143364e+01	-1.217166e+02	2.755004e+05	1.074644e+05	2.932848e+02	3.015279e-01	8.655896e+00	0.000000e+00	
1.394287e-01	-4.248092e-01	1.273152e+00	5.135857e+01	-9.640834e+01	2.723306e+05	1.070578e+05	2.929331e+02	2.500624e-01	8.082605e+00	0.000000e+00	
4.176831e-01	-4.751603e-01	1.276580e+00	5.138249e+01	-1.230863e+02	2.756671e+05	1.074796e+05	2.932975e+02	3.043279e-01	8.677378e+00	0.000000e+00	
2.058863e-01	-4.250553e-01	1.275497e+00	5.151305e+01	-1.103084e+02	2.741596e+05	1.073398e+05	2.931647e+02	2.780753e-01	8.480235e+00	0.000000e+00	
4.590816e-02	-3.727387e-01	1.261079e+00	4.966862e+01	-5.615062e+01	2.660448e+05	1.055267e+05	2.915078e+02	1.736787e-01	5.923878e+00	0.000000e+00	
1.094478e-01	-3.743066e-01	1.270452e+00	5.108220e+01	-8.670174e+01	2.708646e+05	1.067517e+05	2.927162e+02	2.309409e-01	7.651022e+00	0.000000e+00	
6.239841e-01	-7.278817e-01	1.276585e+00	5.124903e+01	-1.245806e+02	2.757946e+05	1.074748e+05	2.932833e+02	3.073672e-01	8.670584e+00	0.000000e+00	
5.943171e-01	-6.773907e-01	1.276595e+00	5.127355e+01	-1.245111e+02	2.757925e+05	1.074763e+05	2.932851e+02	3.072387e-01	8.672662e+00	0.000000e+00	
5.647715e-01	-6.268323e-01	1.276606e+00	5.129828e+01	-1.244128e+02	2.757884e+05	1.074782e+05	2.932875e+02	3.070488e-01	8.675267e+00	0.000000e+00	
5.352864e-01	-5.762326e-01	1.276619e+00	5.132199e+01	-1.242758e+02	2.757813e+05	1.074803e+05	2.932905e+02	3.067759e-01	8.678283e+00	0.000000e+00	
5.058253e-01	-5.256122e-01	1.276631e+00	5.134347e+01	-1.240878e+02	2.757695e+05	1.074826e+05	2.932939e+02	3.063935e-01	8.681502e+00	0.000000e+00	
4.763669e-01	-4.749830e-01	1.276642e+00	5.136066e+01	-1.238331e+02	2.757511e+05	1.074848e+05	2.932976e+02	3.058671e-01	8.684683e+00	0.000000e+00	
6.538686e-01	-7.782868e-01	1.276577e+00	5.122534e+01	-1.246286e+02	2.757956e+05	1.074737e+05	2.932821e+02	3.074504e-01	8.669035e+00	0.000000e+00	
6.840910e-01	-8.286196e-01	1.276572e+00	5.120286e+01	-1.246609e+02	2.757961e+05	1.074730e+05	2.932814e+02	3.075008e-01	8.668025e+00	0.000000e+00	
7.146897e-01	-8.789660e-01	1.276567e+00	5.118154e+01	-1.246814e+02	2.757964e+05	1.074726e+05	2.932815e+02	3.075268e-01	8.667512e+00	0.000000e+00	
7.455077e-01	-9.295282e-01	1.276562e+00	5.116118e+01	-1.246930e+02	2.757967e+05	1.074726e+05	2.932827e+02	3.075342e-01	8.667491e+00	0.000000e+00	
7.761311e-01	-9.806180e-01	1.276555e+00	5.114109e+01	-1.246975e+02	2.757970e+05	1.074729e+05	2.932849e+02	3.075268e-01	8.667809e+00	0.000000e+00	
8.066892e-01	-1.032705e+00	1.276553e+00	5.112193e+01	-1.246976e+02	2.757979e+05	1.074735e+05	2.932871e+02	3.075097e-01	8.668742e+00	0.000000e+00	
8.396453e-01	-1.086095e+00	1.276554e+00	5.110307e+01	-1.246941e+02	2.757993e+05	1.074746e+05	2.932896e+02	3.074844e-01	8.670196e+00	0.000000e+00	
8.693435e-01	-1.140328e+00	1.276559e+00	5.108367e+01	-1.246877e+02	2.758012e+05	1.074759e+05	2.932922e+02	3.074516e-01	8.672072e+00	0.000000e+00	
9.036029e-01	-1.197767e+00	1.276567e+00	5.106615e+01	-1.246805e+02	2.758037e+05	1.074775e+05	2.932947e+02	3.074181e-01	8.674287e+00	0.000000e+00	
2.684994e-01	-4.249155e-01	1.276237e+00	5.148969e+01	-1.171108e+02	2.749899e+05	1.074312e+05	2.932442e+02	2.919968e-01	8.609098e+00	0.000000e+00	
3.288720e-01	-4.247185e-01	1.276449e+00	5.144386e+01	-1.206006e+02	2.753892e+05	1.074621e+05	2.932800e+02	2.991968e-01	8.652683e+00	0.000000e+00	
3.881167e-01	-4.245297e-01	1.276583e+00	5.139103e+01	-1.224705e+02	2.756101e+05	1.074804e+05	2.932990e+02	3.030378e-01	8.678446e+00	0.000000e+00	
0.000000e+00	-3.571429e-01	1.222845e+00	5.191170e+01	-1.551752e+01	2.547676e+05	1.014269e+05	2.889430e+02	1.300240e-01	1.436691e-01	0.000000e+00	
1.747082e-01	-3.745773e-01	1.275275e+00	5.138802e+01	-1.051582e+02	2.736042e+05	1.072933e+05	2.930888e+02	2.674187e-01	8.414627e+00	0.000000e+00	
4.468962e-01	-4.243512e-01	1.276651e+00	5.137176e+01	-1.234924e+02	2.757238e+05	1.074869e+05	2.933012e+02	3.051549e-01	8.687665e+00	0.000000e+00	
2.378722e-01	-3.743837e-01	1.275893e+00	5.151589e+01	-1.142455e+02	2.746364e+05	1.073926e+05	2.932179e+02	2.861365e-01	8.554678e+00	0.000000e+00	
3.825485e-02	-3.273662e-01	1.257845e+00	4.848635e+01	-4.875969e+01	2.647111e+05	1.051326e+05	2.911660e+02	1.598131e-01	5.368314e+00	0.000000e+00	
8.282828e-02	-3.262161e-01	1.264821e+00	5.141994e+01	-7.697642e+01	2.687265e+05	1.061356e+05	2.923225e+02	2.135334e-01	6.782352e+00	0.000000e+00	
1.438113e-01	-3.250824e-01	1.274802e+00	5.122426e+01	-9.839777e+01	2.728437e+05	1.072068e+05	2.929611e+02	2.536078e-01	8.292746e+00	0.000000e+00	
6.832313e-01	-7.271778e-01	1.276603e+00	5.124789e+01	-1.246624e+02	2.758089e+05	1.074774e+05	2.932861e+02	3.075330e-01	8.674202e+00	0.000000e+00	