TITLE = "Visualization of the volumetric solution"
VARIABLES = "x","y","Density","Momentum_x","Momentum_y","Energy","Pressure","Temperature","Mach","C<sub>p</sub>","Roe_Dissipation"
ZONE NODES= 1720, ELEMENTS= 3288, DATAPACKING=POINT, ZONETYPE=FEQUADRILATERAL
-2.000000e+00	-1.190476e+00	1.221958e+00	5.112214e+01	5.954556e-06	2.534758e+05	1.009626e+05	2.878290e+02	1.230089e-01	-5.109865e-01	0.000000e+00	
-1.913018e+00	-1.184272e+00	1.221958e+00	5.112204e+01	2.701026e-04	2.534758e+05	1.009626e+05	2.878290e+02	1.230087e-01	-5.109863e-01	0.000000e+00	
-1.954560e+00	-1.150209e+00	1.221958e+00	5.112225e+01	1.848722e-04	2.534758e+05	1.009626e+05	2.878290e+02	1.230092e-01	-5.109912e-01	0.000000e+00	
-1.849926e+00	-1.205140e+00	1.221958e+00	5.112179e+01	4.015122e-04	2.534758e+05	1.009626e+05	2.878290e+02	1.230081e-01	-5.109654e-01	0.000000e+00	
-1.903970e+00	-1.130852e+00	1.221958e+00	5.112225e+01	4.332460e-04	2.534758e+05	1.009626e+05	2.878290e+02	1.230092e-01	-5.109922e-01	0.000000e+00	
-2.000000e+00	-1.130952e+00	1.221958e+00	5.112235e+01	-1.827176e-06	2.534758e+05	1.009626e+05	2.878290e+02	1.230095e-01	-5.109993e-01	0.000000e+00	
-1.851543e+00	-1.159370e+00	1.221958e+00	5.112195e+01	5.831874e-04	2.534758e+05	1.009626e+05	2.878290e+02	1.230085e-01	-5.109800e-01	0.000000e+00	
-1.953167e+00	-1.099799e+00	1.221958e+00	5.112247e+01	2.487306e-04	2.534758e+05	1.009626e+05	2.878289e+02	1.230097e-01	-5.110082e-01	0.000000e+00	
-1.790653e+00	-1.186382e+00	1.221958e+00	5.112156e+01	6.562639e-04	2.534758e+05	1.009626e+05	2.878290e+02	1.230075e-01	-5.109529e-01	0.000000e+00	
-1.847749e+00	-1.098124e+00	1.221958e+00	5.112224e+01	8.067649e-04	2.534758e+05	1.009626e+05	2.878290e+02	1.230092e-01	-5.109894e-01	0.000000e+00	
-1.900004e+00	-1.068081e+00	1.221958e+00	5.112256e+01	5.928775e-04	2.534758e+05	1.009626e+05	2.878289e+02	1.230100e-01	-5.110144e-01	0.000000e+00	
-2.000000e+00	-1.071429e+00	1.221958e+00	5.112264e+01	-1.262523e-05	2.534758e+05	1.009625e+05	2.878289e+02	1.230102e-01	-5.110190e-01	0.000000e+00	
-1.792598e+00	-1.131714e+00	1.221958e+00	5.112184e+01	9.671669e-04	2.534758e+05	1.009626e+05	2.878290e+02	1.230082e-01	-5.109710e-01	0.000000e+00	
-1.951023e+00	-1.040587e+00	1.221958e+00	5.112280e+01	3.203464e-04	2.534758e+05	1.009625e+05	2.878289e+02	1.230106e-01	-5.110244e-01	0.000000e+00	
-1.731144e+00	-1.203552e+00	1.221958e+00	5.112112e+01	7.656785e-04	2.534759e+05	1.009626e+05	2.878290e+02	1.230064e-01	-5.109294e-01	0.000000e+00	
-1.734651e+00	-1.158217e+00	1.221958e+00	5.112135e+01	1.093732e-03	2.534759e+05	1.009626e+05	2.878290e+02	1.230070e-01	-5.109415e-01	0.000000e+00	
-1.793108e+00	-1.066236e+00	1.221958e+00	5.112220e+01	1.278988e-03	2.534758e+05	1.009626e+05	2.878290e+02	1.230091e-01	-5.109901e-01	0.000000e+00	
-1.846185e+00	-1.035678e+00	1.221958e+00	5.112262e+01	1.036975e-03	2.534758e+05	1.009625e+05	2.878289e+02	1.230101e-01	-5.110186e-01	0.000000e+00	
-1.899025e+00	-1.006433e+00	1.221958e+00	5.112296e+01	7.330833e-04	2.534758e+05	1.009625e+05	2.878289e+02	1.230109e-01	-5.110348e-01	0.000000e+00	
-2.000000e+00	-1.011905e+00	1.221958e+00	5.112302e+01	8.201597e-06	2.534757e+05	1.009625e+05	2.878289e+02	1.230111e-01	-5.110404e-01	0.000000e+00	
-1.739212e+00	-1.097073e+00	1.221958e+00	5.112171e+01	1.460354e-03	2.534758e+05	1.009626e+05	2.878290e+02	1.230079e-01	-5.109598e-01	0.000000e+00	
-1.943558e+00	-9.801168e-01	1.221958e+00	5.112322e+01	4.040669e-04	2.534757e+05	1.009625e+05	2.878289e+02	1.230116e-01	-5.110523e-01	0.000000e+00	
-1.679379e+00	-1.180956e+00	1.221958e+00	5.112073e+01	1.120104e-03	2.534759e+05	1.009626e+05	2.878290e+02	1.230055e-01	-5.109074e-01	0.000000e+00	
-1.685839e+00	-1.129056e+00	1.221958e+00	5.112115e+01	1.567873e-03	2.534759e+05	1.009626e+05	2.878290e+02	1.230065e-01	-5.109241e-01	0.000000e+00	
-1.740561e+00	-1.034368e+00	1.221958e+00	5.112216e+01	1.837407e-03	2.534758e+05	1.009626e+05	2.878290e+02	1.230090e-01	-5.109896e-01	0.000000e+00	
-1.792944e+00	-1.003990e+00	1.221958e+00	5.112266e+01	1.556755e-03	2.534758e+05	1.009625e+05	2.878289e+02	1.230102e-01	-5.110188e-01	0.000000e+00	
-1.845444e+00	-9.749924e-01	1.221958e+00	5.112308e+01	1.223536e-03	2.534757e+05	1.009625e+05	2.878289e+02	1.230112e-01	-5.110440e-01	0.000000e+00	
-1.898581e+00	-9.488258e-01	1.221957e+00	5.112342e+01	8.480552e-04	2.534757e+05	1.009625e+05	2.878289e+02	1.230121e-01	-5.110649e-01	0.000000e+00	
-2.000000e+00	-9.523810e-01	1.221957e+00	5.112348e+01	8.069513e-06	2.534757e+05	1.009625e+05	2.878289e+02	1.230122e-01	-5.110668e-01	0.000000e+00	
-1.688318e+00	-1.065673e+00	1.221958e+00	5.112157e+01	2.050139e-03	2.534758e+05	1.009626e+05	2.878290e+02	1.230075e-01	-5.109538e-01	0.000000e+00	
-1.950382e+00	-9.223557e-01	1.221957e+00	5.112371e+01	4.324965e-04	2.534757e+05	1.009625e+05	2.878289e+02	1.230128e-01	-5.110831e-01	0.000000e+00	
-1.607855e+00	-1.185371e+00	1.221959e+00	5.112001e+01	1.398303e-03	2.534759e+05	1.009627e+05	2.878290e+02	1.230037e-01	-5.108680e-01	0.000000e+00	
-1.639307e+00	-1.148507e+00	1.221958e+00	5.112057e+01	1.642731e-03	2.534759e+05	1.009626e+05	2.878290e+02	1.230051e-01	-5.109051e-01	0.000000e+00	
-1.636716e+00	-1.097558e+00	1.221958e+00	5.112089e+01	2.142662e-03	2.534759e+05	1.009626e+05	2.878290e+02	1.230059e-01	-5.109067e-01	0.000000e+00	
-1.689165e+00	-1.003589e+00	1.221958e+00	5.112211e+01	2.478860e-03	2.534758e+05	1.009626e+05	2.878290e+02	1.230089e-01	-5.109848e-01	0.000000e+00	
-1.740723e+00	-9.729752e-01	1.221958e+00	5.112269e+01	2.160445e-03	2.534758e+05	1.009625e+05	2.878289e+02	1.230103e-01	-5.110210e-01	0.000000e+00	
-1.792515e+00	-9.434304e-01	1.221958e+00	5.112319e+01	1.791388e-03	2.534757e+05	1.009625e+05	2.878289e+02	1.230115e-01	-5.110501e-01	0.000000e+00	
-1.844767e+00	-9.153378e-01	1.221957e+00	5.112360e+01	1.382160e-03	2.534757e+05	1.009625e+05	2.878289e+02	1.230125e-01	-5.110743e-01	0.000000e+00	
-1.897525e+00	-8.884422e-01	1.221957e+00	5.112394e+01	9.364480e-04	2.534757e+05	1.009625e+05	2.878289e+02	1.230134e-01	-5.110928e-01	0.000000e+00	
-2.000000e+00	-8.928571e-01	1.221957e+00	5.112398e+01	-1.749947e-05	2.534757e+05	1.009625e+05	2.878289e+02	1.230134e-01	-5.110958e-01	0.000000e+00	
-1.637687e+00	-1.035136e+00	1.221958e+00	5.112141e+01	2.736182e-03	2.534758e+05	1.009626e+05	2.878290e+02	1.230072e-01	-5.109473e-01	0.000000e+00	
-1.951486e+00	-8.621834e-01	1.221957e+00	5.112424e+01	4.634689e-04	2.534757e+05	1.009625e+05	2.878289e+02	1.230141e-01	-5.111125e-01	0.000000e+00	
-1.550264e+00	-1.185139e+00	1.221959e+00	5.111922e+01	1.717642e-03	2.534760e+05	1.009627e+05	2.878291e+02	1.230018e-01	-5.108140e-01	0.000000e+00	
-1.582082e+00	-1.140771e+00	1.221959e+00	5.112002e+01	2.143419e-03	2.534759e+05	1.009627e+05	2.878290e+02	1.230037e-01	-5.108603e-01	0.000000e+00	
-1.585659e+00	-1.068349e+00	1.221958e+00	5.112060e+01	2.907493e-03	2.534759e+05	1.009626e+05	2.878290e+02	1.230052e-01	-5.108935e-01	0.000000e+00	
-1.638167e+00	-9.734470e-01	1.221958e+00	5.112206e+01	3.221674e-03	2.534758e+05	1.009626e+05	2.878290e+02	1.230088e-01	-5.109826e-01	0.000000e+00	
-1.689207e+00	-9.427785e-01	1.221958e+00	5.112273e+01	2.850376e-03	2.534758e+05	1.009625e+05	2.878289e+02	1.230104e-01	-5.110234e-01	0.000000e+00	
-1.740389e+00	-9.128364e-01	1.221957e+00	5.112330e+01	2.432749e-03	2.534757e+05	1.009625e+05	2.878289e+02	1.230118e-01	-5.110568e-01	0.000000e+00	
-1.791943e+00	-8.838067e-01	1.221957e+00	5.112377e+01	1.986306e-03	2.534757e+05	1.009625e+05	2.878289e+02	1.230129e-01	-5.110855e-01	0.000000e+00	
-1.844135e+00	-8.558208e-01	1.221957e+00	5.112417e+01	1.512251e-03	2.534757e+05	1.009625e+05	2.878289e+02	1.230139e-01	-5.111103e-01	0.000000e+00	
-1.897320e+00	-8.288068e-01	1.221957e+00	5.112451e+01	1.012250e-03	2.534757e+05	1.009625e+05	2.878289e+02	1.230147e-01	-5.111296e-01	0.000000e+00	
-2.000000e+00	-8.333333e-01	1.221957e+00	5.112451e+01	-2.152845e-05	2.534756e+05	1.009625e+05	2.878289e+02	1.230148e-01	-5.111303e-01	0.000000e+00	
-1.587044e+00	-1.004740e+00	1.221958e+00	5.112127e+01	3.543736e-03	2.534759e+05	1.009626e+05	2.878290e+02	1.230068e-01	-5.109358e-01	0.000000e+00	
-1.951700e+00	-8.025383e-01	1.221957e+00	5.112480e+01	4.904545e-04	2.534756e+05	1.009625e+05	2.878289e+02	1.230155e-01	-5.111471e-01	0.000000e+00	
-1.482426e+00	-1.181198e+00	1.221959e+00	5.111821e+01	2.062028e-03	2.534760e+05	1.009627e+05	2.878291e+02	1.229993e-01	-5.107596e-01	0.000000e+00	
-1.524589e+00	-1.149206e+00	1.221959e+00	5.111917e+01	2.415595e-03	2.534760e+05	1.009627e+05	2.878291e+02	1.230017e-01	-5.108257e-01	0.000000e+00	
-1.533019e+00	-1.098254e+00	1.221959e+00	5.111970e+01	3.026499e-03	2.534760e+05	1.009627e+05	2.878290e+02	1.230030e-01	-5.108286e-01	0.000000e+00	
-1.535784e+00	-1.035922e+00	1.221959e+00	5.112036e+01	3.828720e-03	2.534759e+05	1.009626e+05	2.878290e+02	1.230046e-01	-5.108859e-01	0.000000e+00	
-1.638043e+00	-9.131350e-01	1.221958e+00	5.112278e+01	3.630216e-03	2.534758e+05	1.009625e+05	2.878289e+02	1.230105e-01	-5.110263e-01	0.000000e+00	
-1.587311e+00	-9.436131e-01	1.221958e+00	5.112203e+01	4.081877e-03	2.534758e+05	1.009626e+05	2.878290e+02	1.230087e-01	-5.109818e-01	0.000000e+00	
-1.688831e+00	-8.830544e-01	1.221957e+00	5.112342e+01	3.148757e-03	2.534757e+05	1.009625e+05	2.878289e+02	1.230121e-01	-5.110638e-01	0.000000e+00	
-1.739847e+00	-8.535053e-01	1.221957e+00	5.112395e+01	2.647611e-03	2.534757e+05	1.009625e+05	2.878289e+02	1.230134e-01	-5.110960e-01	0.000000e+00	
-1.791344e+00	-8.246529e-01	1.221957e+00	5.112440e+01	2.130353e-03	2.534757e+05	1.009625e+05	2.878289e+02	1.230145e-01	-5.111225e-01	0.000000e+00	
-1.843662e+00	-7.966422e-01	1.221957e+00	5.112478e+01	1.599728e-03	2.534756e+05	1.009625e+05	2.878289e+02	1.230154e-01	-5.111458e-01	0.000000e+00	
-1.897118e+00	-7.695048e-01	1.221957e+00	5.112511e+01	1.056791e-03	2.534756e+05	1.009624e+05	2.878289e+02	1.230162e-01	-5.111647e-01	0.000000e+00	
-2.000000e+00	-7.738095e-01	1.221957e+00	5.112509e+01	-2.574377e-05	2.534756e+05	1.009624e+05	2.878289e+02	1.230162e-01	-5.111649e-01	0.000000e+00	
-1.536563e+00	-9.743093e-01	1.221958e+00	5.112115e+01	4.492209e-03	2.534759e+05	1.009626e+05	2.878290e+02	1.230065e-01	-5.109274e-01	0.000000e+00	
-1.951774e+00	-7.430524e-01	1.221957e+00	5.112540e+01	5.065012e-04	2.534756e+05	1.009624e+05	2.878288e+02	1.230169e-01	-5.111829e-01	0.000000e+00	
-1.428477e+00	-1.207429e+00	1.221960e+00	5.111707e+01	1.892879e-03	2.534761e+05	1.009628e+05	2.878291e+02	1.229965e-01	-5.106977e-01	0.000000e+00	
-1.483039e+00	-1.130346e+00	1.221959e+00	5.111866e+01	3.034087e-03	2.534760e+05	1.009627e+05	2.878291e+02	1.230004e-01	-5.107779e-01	0.000000e+00	
-1.485010e+00	-1.067181e+00	1.221959e+00	5.111933e+01	4.018820e-03	2.534760e+05	1.009627e+05	2.878291e+02	1.230021e-01	-5.108187e-01	0.000000e+00	
-1.485902e+00	-1.005187e+00	1.221959e+00	5.112013e+01	4.867006e-03	2.534759e+05	1.009627e+05	2.878290e+02	1.230040e-01	-5.108667e-01	0.000000e+00	
-1.587023e+00	-8.838189e-01	1.221958e+00	5.112287e+01	4.513563e-03	2.534758e+05	1.009625e+05	2.878289e+02	1.230107e-01	-5.110312e-01	0.000000e+00	
-1.637592e+00	-8.537695e-01	1.221957e+00	5.112357e+01	3.948184e-03	2.534757e+05	1.009625e+05	2.878289e+02	1.230124e-01	-5.110730e-01	0.000000e+00	
-1.536482e+00	-9.140522e-01	1.221958e+00	5.112204e+01	5.065636e-03	2.534758e+05	1.009626e+05	2.878290e+02	1.230087e-01	-5.109824e-01	0.000000e+00	
-1.688274e+00	-8.239861e-01	1.221957e+00	5.112415e+01	3.375351e-03	2.534757e+05	1.009625e+05	2.878289e+02	1.230139e-01	-5.111081e-01	0.000000e+00	
-1.739242e+00	-7.945913e-01	1.221957e+00	5.112464e+01	2.801064e-03	2.534756e+05	1.009625e+05	2.878289e+02	1.230151e-01	-5.111378e-01	0.000000e+00	
-1.790775e+00	-7.657566e-01	1.221957e+00	5.112506e+01	2.227408e-03	2.534756e+05	1.009624e+05	2.878289e+02	1.230161e-01	-5.111627e-01	0.000000e+00	
-1.843232e+00	-7.376524e-01	1.221957e+00	5.112541e+01	1.653634e-03	2.534756e+05	1.009624e+05	2.878288e+02	1.230170e-01	-5.111844e-01	0.000000e+00	
-1.896909e+00	-7.103342e-01	1.221957e+00	5.112572e+01	1.080057e-03	2.534756e+05	1.009624e+05	2.878288e+02	1.230177e-01	-5.112019e-01	0.000000e+00	
-2.000000e+00	-7.142857e-01	1.221957e+00	5.112569e+01	-2.697192e-05	2.534756e+05	1.009624e+05	2.878288e+02	1.230176e-01	-5.112009e-01	0.000000e+00	
-1.436314e+00	-1.160707e+00	1.221960e+00	5.111744e+01	2.786003e-03	2.534761e+05	1.009628e+05	2.878291e+02	1.229974e-01	-5.107097e-01	0.000000e+00	
-1.485963e+00	-9.444475e-01	1.221958e+00	5.112106e+01	5.595975e-03	2.534759e+05	1.009626e+05	2.878290e+02	1.230063e-01	-5.109239e-01	0.000000e+00	
-1.951834e+00	-6.836189e-01	1.221956e+00	5.112600e+01	5.111395e-04	2.534756e+05	1.009624e+05	2.878288e+02	1.230184e-01	-5.112194e-01	0.000000e+00	
-1.381401e+00	-1.203049e+00	1.221960e+00	5.111603e+01	2.270612e-03	2.534762e+05	1.009628e+05	2.878292e+02	1.229940e-01	-5.106382e-01	0.000000e+00	
-1.435164e+00	-1.099511e+00	1.221959e+00	5.111810e+01	4.022031e-03	2.534761e+05	1.009627e+05	2.878291e+02	1.229990e-01	-5.107400e-01	0.000000e+00	
-1.435473e+00	-1.036658e+00	1.221959e+00	5.111895e+01	5.156626e-03	2.534760e+05	1.009627e+05	2.878291e+02	1.230011e-01	-5.107963e-01	0.000000e+00	
-1.435492e+00	-9.751382e-01	1.221959e+00	5.111992e+01	6.088963e-03	2.534759e+05	1.009627e+05	2.878290e+02	1.230035e-01	-5.108542e-01	0.000000e+00	
-1.586498e+00	-8.247520e-01	1.221957e+00	5.112376e+01	4.838500e-03	2.534757e+05	1.009625e+05	2.878289e+02	1.230129e-01	-5.110848e-01	0.000000e+00	
-1.536036e+00	-8.547237e-01	1.221958e+00	5.112301e+01	5.511384e-03	2.534757e+05	1.009625e+05	2.878289e+02	1.230111e-01	-5.110394e-01	0.000000e+00	
-1.637009e+00	-7.948977e-01	1.221957e+00	5.112439e+01	4.173706e-03	2.534757e+05	1.009625e+05	2.878289e+02	1.230145e-01	-5.111226e-01	0.000000e+00	
-1.485590e+00	-8.847930e-01	1.221958e+00	5.112210e+01	6.186566e-03	2.534758e+05	1.009626e+05	2.878290e+02	1.230088e-01	-5.109852e-01	0.000000e+00	
-1.687660e+00	-7.652266e-01	1.221957e+00	5.112492e+01	3.523592e-03	2.534756e+05	1.009625e+05	2.878289e+02	1.230158e-01	-5.111543e-01	0.000000e+00	
-1.738635e+00	-7.358608e-01	1.221957e+00	5.112536e+01	2.890025e-03	2.534756e+05	1.009624e+05	2.878288e+02	1.230168e-01	-5.111810e-01	0.000000e+00	
-1.790233e+00	-7.069758e-01	1.221957e+00	5.112574e+01	2.272381e-03	2.534756e+05	1.009624e+05	2.878288e+02	1.230178e-01	-5.112032e-01	0.000000e+00	
-1.842826e+00	-6.787423e-01	1.221956e+00	5.112606e+01	1.668965e-03	2.534756e+05	1.009624e+05	2.878288e+02	1.230186e-01	-5.112230e-01	0.000000e+00	
-1.896711e+00	-6.512112e-01	1.221956e+00	5.112634e+01	1.078209e-03	2.534755e+05	1.009624e+05	2.878288e+02	1.230192e-01	-5.112389e-01	0.000000e+00	
-2.000000e+00	-6.547619e-01	1.221956e+00	5.112629e+01	-2.759313e-05	2.534755e+05	1.009624e+05	2.878288e+02	1.230191e-01	-5.112372e-01	0.000000e+00	
-1.384569e+00	-1.135692e+00	1.221960e+00	5.111656e+01	3.740432e-03	2.534761e+05	1.009628e+05	2.878292e+02	1.229953e-01	-5.106613e-01	0.000000e+00	
-1.435154e+00	-9.150004e-01	1.221958e+00	5.112103e+01	6.858797e-03	2.534759e+05	1.009626e+05	2.878290e+02	1.230062e-01	-5.109210e-01	0.000000e+00	
-1.951901e+00	-6.242027e-01	1.221956e+00	5.112661e+01	5.040567e-04	2.534755e+05	1.009624e+05	2.878288e+02	1.230199e-01	-5.112559e-01	0.000000e+00	
-1.333934e+00	-1.179953e+00	1.221961e+00	5.111500e+01	3.361055e-03	2.534763e+05	1.009629e+05	2.878292e+02	1.229914e-01	-5.105411e-01	0.000000e+00	
-1.385051e+00	-1.069594e+00	1.221960e+00	5.111749e+01	5.241189e-03	2.534761e+05	1.009628e+05	2.878291e+02	1.229976e-01	-5.107137e-01	0.000000e+00	
-1.385044e+00	-1.006427e+00	1.221959e+00	5.111856e+01	6.490337e-03	2.534760e+05	1.009627e+05	2.878291e+02	1.230002e-01	-5.107734e-01	0.000000e+00	
-1.384722e+00	-9.454568e-01	1.221959e+00	5.111975e+01	7.501901e-03	2.534760e+05	1.009627e+05	2.878290e+02	1.230031e-01	-5.108440e-01	0.000000e+00	
-1.585892e+00	-7.660163e-01	1.221957e+00	5.112470e+01	5.049935e-03	2.534756e+05	1.009625e+05	2.878289e+02	1.230152e-01	-5.111409e-01	0.000000e+00	
-1.535455e+00	-7.958758e-01	1.221957e+00	5.112403e+01	5.828071e-03	2.534757e+05	1.009625e+05	2.878289e+02	1.230136e-01	-5.111007e-01	0.000000e+00	
-1.485037e+00	-8.257859e-01	1.221958e+00	5.112322e+01	6.633850e-03	2.534757e+05	1.009625e+05	2.878289e+02	1.230116e-01	-5.110522e-01	0.000000e+00	
-1.636386e+00	-7.362313e-01	1.221957e+00	5.112525e+01	4.304140e-03	2.534756e+05	1.009624e+05	2.878289e+02	1.230166e-01	-5.111743e-01	0.000000e+00	
-1.434624e+00	-8.557541e-01	1.221958e+00	5.112224e+01	7.461327e-03	2.534758e+05	1.009626e+05	2.878290e+02	1.230092e-01	-5.109933e-01	0.000000e+00	
-1.687037e+00	-7.065855e-01	1.221957e+00	5.112571e+01	3.592531e-03	2.534756e+05	1.009624e+05	2.878288e+02	1.230177e-01	-5.112020e-01	0.000000e+00	
-1.738039e+00	-6.771988e-01	1.221956e+00	5.112610e+01	2.914386e-03	2.534755e+05	1.009624e+05	2.878288e+02	1.230186e-01	-5.112252e-01	0.000000e+00	
-1.789710e+00	-6.482388e-01	1.221956e+00	5.112642e+01	2.267041e-03	2.534755e+05	1.009624e+05	2.878288e+02	1.230194e-01	-5.112444e-01	0.000000e+00	
-1.842437e+00	-6.198613e-01	1.221956e+00	5.112671e+01	1.647054e-03	2.534755e+05	1.009624e+05	2.878288e+02	1.230201e-01	-5.112617e-01	0.000000e+00	
-1.896524e+00	-5.921043e-01	1.221956e+00	5.112695e+01	1.052012e-03	2.534755e+05	1.009624e+05	2.878288e+02	1.230207e-01	-5.112756e-01	0.000000e+00	
-2.000000e+00	-5.952381e-01	1.221956e+00	5.112689e+01	-2.781777e-05	2.534755e+05	1.009624e+05	2.878288e+02	1.230206e-01	-5.112730e-01	0.000000e+00	
-1.285603e+00	-1.202634e+00	1.221961e+00	5.111347e+01	3.205691e-03	2.534763e+05	1.009629e+05	2.878293e+02	1.229877e-01	-5.104754e-01	0.000000e+00	
-1.334509e+00	-1.104381e+00	1.221960e+00	5.111577e+01	5.194235e-03	2.534762e+05	1.009628e+05	2.878292e+02	1.229933e-01	-5.106145e-01	0.000000e+00	
-1.384211e+00	-8.858197e-01	1.221958e+00	5.112106e+01	8.303594e-03	2.534759e+05	1.009626e+05	2.878290e+02	1.230063e-01	-5.109231e-01	0.000000e+00	
-1.951978e+00	-5.647922e-01	1.221956e+00	5.112720e+01	4.852760e-04	2.534755e+05	1.009624e+05	2.878288e+02	1.230213e-01	-5.112914e-01	0.000000e+00	
-1.284178e+00	-1.135987e+00	1.221961e+00	5.111410e+01	5.090266e-03	2.534764e+05	1.009629e+05	2.878292e+02	1.229892e-01	-5.104856e-01	0.000000e+00	
-1.334573e+00	-1.038434e+00	1.221960e+00	5.111692e+01	6.752107e-03	2.534761e+05	1.009628e+05	2.878291e+02	1.229962e-01	-5.106755e-01	0.000000e+00	
-1.334286e+00	-9.762514e-01	1.221959e+00	5.111822e+01	8.080661e-03	2.534760e+05	1.009627e+05	2.878291e+02	1.229993e-01	-5.107550e-01	0.000000e+00	
-1.333796e+00	-9.160353e-01	1.221959e+00	5.111966e+01	9.134725e-03	2.534760e+05	1.009627e+05	2.878290e+02	1.230029e-01	-5.108380e-01	0.000000e+00	
-1.585263e+00	-7.074028e-01	1.221957e+00	5.112566e+01	5.146029e-03	2.534756e+05	1.009624e+05	2.878288e+02	1.230176e-01	-5.111987e-01	0.000000e+00	
-1.534833e+00	-7.372253e-01	1.221957e+00	5.112509e+01	6.008910e-03	2.534756e+05	1.009624e+05	2.878289e+02	1.230162e-01	-5.111643e-01	0.000000e+00	
-1.484423e+00	-7.670749e-01	1.221957e+00	5.112439e+01	6.924319e-03	2.534757e+05	1.009625e+05	2.878289e+02	1.230144e-01	-5.111221e-01	0.000000e+00	
-1.434019e+00	-7.969472e-01	1.221957e+00	5.112352e+01	7.889726e-03	2.534757e+05	1.009625e+05	2.878289e+02	1.230123e-01	-5.110706e-01	0.000000e+00	
-1.635756e+00	-6.776342e-01	1.221956e+00	5.112613e+01	4.336980e-03	2.534755e+05	1.009624e+05	2.878288e+02	1.230187e-01	-5.112268e-01	0.000000e+00	
-1.383615e+00	-8.268533e-01	1.221958e+00	5.112247e+01	8.900196e-03	2.534758e+05	1.009626e+05	2.878289e+02	1.230098e-01	-5.110075e-01	0.000000e+00	
-1.686417e+00	-6.479821e-01	1.221956e+00	5.112651e+01	3.580424e-03	2.534755e+05	1.009624e+05	2.878288e+02	1.230197e-01	-5.112498e-01	0.000000e+00	
-1.737454e+00	-6.185590e-01	1.221956e+00	5.112683e+01	2.873050e-03	2.534755e+05	1.009624e+05	2.878288e+02	1.230204e-01	-5.112690e-01	0.000000e+00	
-1.789199e+00	-5.895163e-01	1.221956e+00	5.112710e+01	2.210421e-03	2.534755e+05	1.009624e+05	2.878288e+02	1.230211e-01	-5.112847e-01	0.000000e+00	
-1.842058e+00	-5.609896e-01	1.221956e+00	5.112733e+01	1.587813e-03	2.534755e+05	1.009623e+05	2.878288e+02	1.230217e-01	-5.112993e-01	0.000000e+00	
-1.896346e+00	-5.330022e-01	1.221956e+00	5.112754e+01	1.001873e-03	2.534755e+05	1.009623e+05	2.878288e+02	1.230222e-01	-5.113108e-01	0.000000e+00	
-2.000000e+00	-5.357143e-01	1.221956e+00	5.112746e+01	-2.745462e-05	2.534755e+05	1.009623e+05	2.878288e+02	1.230220e-01	-5.113074e-01	0.000000e+00	
-1.232677e+00	-1.161484e+00	1.221962e+00	5.111218e+01	5.005884e-03	2.534764e+05	1.009630e+05	2.878293e+02	1.229845e-01	-5.103958e-01	0.000000e+00	
-1.238042e+00	-1.207625e+00	1.221962e+00	5.111174e+01	3.131831e-03	2.534765e+05	1.009630e+05	2.878293e+02	1.229834e-01	-5.103501e-01	0.000000e+00	
-1.284181e+00	-1.070156e+00	1.221960e+00	5.111506e+01	6.945972e-03	2.534762e+05	1.009629e+05	2.878292e+02	1.229916e-01	-5.105740e-01	0.000000e+00	
-1.333210e+00	-8.568167e-01	1.221958e+00	5.112120e+01	9.948181e-03	2.534759e+05	1.009626e+05	2.878290e+02	1.230066e-01	-5.109315e-01	0.000000e+00	
-1.952062e+00	-5.053835e-01	1.221956e+00	5.112776e+01	4.555141e-04	2.534754e+05	1.009623e+05	2.878288e+02	1.230227e-01	-5.113252e-01	0.000000e+00	
-1.234074e+00	-1.100366e+00	1.221961e+00	5.111307e+01	7.007349e-03	2.534764e+05	1.009630e+05	2.878293e+02	1.229867e-01	-5.104435e-01	0.000000e+00	
-1.283894e+00	-1.007220e+00	1.221960e+00	5.111641e+01	8.554784e-03	2.534762e+05	1.009628e+05	2.878292e+02	1.229949e-01	-5.106438e-01	0.000000e+00	
-1.283398e+00	-9.464113e-01	1.221959e+00	5.111796e+01	9.929147e-03	2.534761e+05	1.009627e+05	2.878291e+02	1.229987e-01	-5.107384e-01	0.000000e+00	
-1.282810e+00	-8.868629e-01	1.221959e+00	5.111966e+01	1.101231e-02	2.534760e+05	1.009627e+05	2.878290e+02	1.230029e-01	-5.108390e-01	0.000000e+00	
-1.534200e+00	-6.786397e-01	1.221956e+00	5.112617e+01	6.051948e-03	2.534755e+05	1.009624e+05	2.878288e+02	1.230188e-01	-5.112291e-01	0.000000e+00	
-1.584629e+00	-6.488259e-01	1.221956e+00	5.112663e+01	5.125556e-03	2.534755e+05	1.009624e+05	2.878288e+02	1.230199e-01	-5.112569e-01	0.000000e+00	
-1.483792e+00	-7.084714e-01	1.221957e+00	5.112559e+01	7.054405e-03	2.534756e+05	1.009624e+05	2.878288e+02	1.230174e-01	-5.111943e-01	0.000000e+00	
-1.433390e+00	-7.383124e-01	1.221957e+00	5.112486e+01	8.133407e-03	2.534756e+05	1.009625e+05	2.878289e+02	1.230156e-01	-5.111508e-01	0.000000e+00	
-1.382989e+00	-7.681640e-01	1.221957e+00	5.112396e+01	9.288569e-03	2.534757e+05	1.009625e+05	2.878289e+02	1.230134e-01	-5.110970e-01	0.000000e+00	
-1.635126e+00	-6.190563e-01	1.221956e+00	5.112700e+01	4.272413e-03	2.534755e+05	1.009624e+05	2.878288e+02	1.230209e-01	-5.112791e-01	0.000000e+00	
-1.332588e+00	-7.980338e-01	1.221958e+00	5.112285e+01	1.051693e-02	2.534758e+05	1.009625e+05	2.878289e+02	1.230107e-01	-5.110302e-01	0.000000e+00	
-1.685802e+00	-5.893892e-01	1.221956e+00	5.112730e+01	3.488208e-03	2.534755e+05	1.009623e+05	2.878288e+02	1.230216e-01	-5.112970e-01	0.000000e+00	
-1.736874e+00	-5.599255e-01	1.221956e+00	5.112754e+01	2.767555e-03	2.534755e+05	1.009623e+05	2.878288e+02	1.230222e-01	-5.113117e-01	0.000000e+00	
-1.788694e+00	-5.307981e-01	1.221956e+00	5.112775e+01	2.104428e-03	2.534754e+05	1.009623e+05	2.878288e+02	1.230227e-01	-5.113236e-01	0.000000e+00	
-1.841686e+00	-5.021205e-01	1.221956e+00	5.112793e+01	1.492985e-03	2.534754e+05	1.009623e+05	2.878288e+02	1.230231e-01	-5.113350e-01	0.000000e+00	
-1.896174e+00	-4.739013e-01	1.221956e+00	5.112810e+01	9.292547e-04	2.534754e+05	1.009623e+05	2.878288e+02	1.230235e-01	-5.113438e-01	0.000000e+00	
-2.000000e+00	-4.761905e-01	1.221956e+00	5.112800e+01	-2.644037e-05	2.534754e+05	1.009623e+05	2.878288e+02	1.230233e-01	-5.113398e-01	0.000000e+00	
-1.185708e+00	-1.130828e+00	1.221962e+00	5.111089e+01	6.858390e-03	2.534765e+05	1.009631e+05	2.878293e+02	1.229814e-01	-5.103045e-01	0.000000e+00	
-1.184765e+00	-1.185808e+00	1.221963e+00	5.110985e+01	4.426541e-03	2.534766e+05	1.009631e+05	2.878294e+02	1.229788e-01	-5.102310e-01	0.000000e+00	
-1.233724e+00	-1.038016e+00	1.221961e+00	5.111430e+01	8.945421e-03	2.534763e+05	1.009629e+05	2.878292e+02	1.229897e-01	-5.105235e-01	0.000000e+00	
-1.282188e+00	-8.279355e-01	1.221958e+00	5.112149e+01	1.181096e-02	2.534758e+05	1.009626e+05	2.878290e+02	1.230073e-01	-5.109483e-01	0.000000e+00	
-1.952152e+00	-4.459755e-01	1.221956e+00	5.112828e+01	4.155978e-04	2.534754e+05	1.009623e+05	2.878287e+02	1.230240e-01	-5.113565e-01	0.000000e+00	
-1.184242e+00	-1.068796e+00	1.221962e+00	5.111198e+01	9.181175e-03	2.534765e+05	1.009630e+05	2.878293e+02	1.229841e-01	-5.103763e-01	0.000000e+00	
-1.233095e+00	-9.769027e-01	1.221960e+00	5.111595e+01	1.065611e-02	2.534762e+05	1.009628e+05	2.878292e+02	1.229938e-01	-5.106200e-01	0.000000e+00	
-1.232442e+00	-9.170133e-01	1.221960e+00	5.111780e+01	1.206458e-02	2.534761e+05	1.009628e+05	2.878291e+02	1.229983e-01	-5.107275e-01	0.000000e+00	
-1.231797e+00	-8.578882e-01	1.221959e+00	5.111982e+01	1.315620e-02	2.534760e+05	1.009627e+05	2.878290e+02	1.230033e-01	-5.108490e-01	0.000000e+00	
-1.533565e+00	-6.200713e-01	1.221956e+00	5.112724e+01	5.957606e-03	2.534755e+05	1.009624e+05	2.878288e+02	1.230214e-01	-5.112934e-01	0.000000e+00	
-1.483157e+00	-6.498991e-01	1.221956e+00	5.112680e+01	7.022045e-03	2.534755e+05	1.009624e+05	2.878288e+02	1.230204e-01	-5.112667e-01	0.000000e+00	
-1.583995e+00	-5.902579e-01	1.221956e+00	5.112758e+01	4.989647e-03	2.534755e+05	1.009623e+05	2.878288e+02	1.230223e-01	-5.113139e-01	0.000000e+00	
-1.432756e+00	-6.797320e-01	1.221956e+00	5.112622e+01	8.188025e-03	2.534755e+05	1.009624e+05	2.878288e+02	1.230190e-01	-5.112325e-01	0.000000e+00	
-1.382356e+00	-7.095681e-01	1.221957e+00	5.112549e+01	9.458962e-03	2.534756e+05	1.009624e+05	2.878288e+02	1.230172e-01	-5.111886e-01	0.000000e+00	
-1.331956e+00	-7.394092e-01	1.221957e+00	5.112457e+01	1.083711e-02	2.534756e+05	1.009625e+05	2.878289e+02	1.230149e-01	-5.111332e-01	0.000000e+00	
-1.634498e+00	-5.604830e-01	1.221956e+00	5.112785e+01	4.112086e-03	2.534754e+05	1.009623e+05	2.878288e+02	1.230229e-01	-5.113299e-01	0.000000e+00	
-1.281556e+00	-7.692600e-01	1.221957e+00	5.112341e+01	1.232287e-02	2.534757e+05	1.009625e+05	2.878289e+02	1.230121e-01	-5.110637e-01	0.000000e+00	
-1.685188e+00	-5.307987e-01	1.221956e+00	5.112806e+01	3.318076e-03	2.534754e+05	1.009623e+05	2.878288e+02	1.230234e-01	-5.113422e-01	0.000000e+00	
-1.736298e+00	-5.012935e-01	1.221956e+00	5.112822e+01	2.600365e-03	2.534754e+05	1.009623e+05	2.878287e+02	1.230238e-01	-5.113522e-01	0.000000e+00	
-1.788193e+00	-4.720809e-01	1.221956e+00	5.112836e+01	1.951560e-03	2.534754e+05	1.009623e+05	2.878287e+02	1.230242e-01	-5.113600e-01	0.000000e+00	
-1.841317e+00	-4.432518e-01	1.221956e+00	5.112848e+01	1.364920e-03	2.534754e+05	1.009623e+05	2.878287e+02	1.230245e-01	-5.113680e-01	0.000000e+00	
-1.896007e+00	-4.148005e-01	1.221956e+00	5.112860e+01	8.359737e-04	2.534754e+05	1.009623e+05	2.878287e+02	1.230248e-01	-5.113740e-01	0.000000e+00	
-2.000000e+00	-4.166667e-01	1.221956e+00	5.112850e+01	-2.471751e-05	2.534754e+05	1.009623e+05	2.878287e+02	1.230245e-01	-5.113693e-01	0.000000e+00	
-1.143479e+00	-1.149926e+00	1.221963e+00	5.110864e+01	6.660888e-03	2.534766e+05	1.009631e+05	2.878294e+02	1.229759e-01	-5.102227e-01	0.000000e+00	
-1.136036e+00	-1.099969e+00	1.221963e+00	5.110935e+01	8.988619e-03	2.534767e+05	1.009631e+05	2.878294e+02	1.229776e-01	-5.101991e-01	0.000000e+00	
-1.116564e+00	-1.191314e+00	1.221964e+00	5.110674e+01	5.012089e-03	2.534768e+05	1.009632e+05	2.878295e+02	1.229712e-01	-5.100710e-01	0.000000e+00	
-1.183052e+00	-1.007558e+00	1.221961e+00	5.111360e+01	1.128249e-02	2.534763e+05	1.009629e+05	2.878293e+02	1.229880e-01	-5.104765e-01	0.000000e+00	
-1.231159e+00	-7.991290e-01	1.221958e+00	5.112196e+01	1.391010e-02	2.534758e+05	1.009626e+05	2.878290e+02	1.230085e-01	-5.109767e-01	0.000000e+00	
-1.952249e+00	-3.865677e-01	1.221955e+00	5.112875e+01	3.665912e-04	2.534754e+05	1.009623e+05	2.878287e+02	1.230251e-01	-5.113847e-01	0.000000e+00	
-1.133422e+00	-1.038685e+00	1.221962e+00	5.111086e+01	1.174597e-02	2.534765e+05	1.009630e+05	2.878294e+02	1.229813e-01	-5.103297e-01	0.000000e+00	
-1.182166e+00	-9.473104e-01	1.221960e+00	5.111557e+01	1.308698e-02	2.534762e+05	1.009628e+05	2.878292e+02	1.229928e-01	-5.105969e-01	0.000000e+00	
-1.181435e+00	-8.879214e-01	1.221960e+00	5.111779e+01	1.452499e-02	2.534761e+05	1.009628e+05	2.878291e+02	1.229983e-01	-5.107266e-01	0.000000e+00	
-1.180769e+00	-8.290307e-01	1.221959e+00	5.112018e+01	1.559067e-02	2.534759e+05	1.009627e+05	2.878290e+02	1.230041e-01	-5.108702e-01	0.000000e+00	
-1.482521e+00	-5.913341e-01	1.221956e+00	5.112798e+01	6.830114e-03	2.534754e+05	1.009623e+05	2.878288e+02	1.230233e-01	-5.113378e-01	0.000000e+00	
-1.532929e+00	-5.615067e-01	1.221956e+00	5.112828e+01	5.729123e-03	2.534754e+05	1.009623e+05	2.878287e+02	1.230240e-01	-5.113558e-01	0.000000e+00	
-1.432120e+00	-6.211654e-01	1.221956e+00	5.112757e+01	8.054015e-03	2.534755e+05	1.009623e+05	2.878288e+02	1.230223e-01	-5.113134e-01	0.000000e+00	
-1.583362e+00	-5.316917e-01	1.221956e+00	5.112850e+01	4.742230e-03	2.534754e+05	1.009623e+05	2.878287e+02	1.230245e-01	-5.113688e-01	0.000000e+00	
-1.381720e+00	-6.509980e-01	1.221956e+00	5.112703e+01	9.409045e-03	2.534755e+05	1.009624e+05	2.878288e+02	1.230209e-01	-5.112807e-01	0.000000e+00	
-1.331321e+00	-6.808319e-01	1.221956e+00	5.112631e+01	1.090254e-02	2.534755e+05	1.009624e+05	2.878288e+02	1.230192e-01	-5.112378e-01	0.000000e+00	
-1.280921e+00	-7.106681e-01	1.221957e+00	5.112538e+01	1.254033e-02	2.534756e+05	1.009624e+05	2.878288e+02	1.230169e-01	-5.111819e-01	0.000000e+00	
-1.633870e+00	-5.019105e-01	1.221956e+00	5.112865e+01	3.860362e-03	2.534754e+05	1.009623e+05	2.878287e+02	1.230249e-01	-5.113781e-01	0.000000e+00	
-1.230522e+00	-7.405094e-01	1.221957e+00	5.112419e+01	1.432718e-02	2.534757e+05	1.009625e+05	2.878289e+02	1.230140e-01	-5.111107e-01	0.000000e+00	
-1.684576e+00	-4.722088e-01	1.221955e+00	5.112876e+01	3.074517e-03	2.534754e+05	1.009623e+05	2.878287e+02	1.230252e-01	-5.113846e-01	0.000000e+00	
-1.735722e+00	-4.426619e-01	1.221955e+00	5.112885e+01	2.375794e-03	2.534754e+05	1.009623e+05	2.878287e+02	1.230254e-01	-5.113897e-01	0.000000e+00	