TITLE = "Visualization of the volumetric solution"
VARIABLES = "x","y","Density","Momentum_x","Momentum_y","Energy","Pressure","Temperature","Mach","C<sub>p</sub>","Roe_Dissipation"
ZONE NODES= 2400, ELEMENTS= 2291, DATAPACKING=POINT, ZONETYPE=FEQUADRILATERAL
0.000000e+00	1.250000e+00	1.225097e+00	4.166547e+01	2.061931e-01	2.540231e+05	1.013258e+05	2.881244e+02	9.994757e-02	1.166886e-03	0.000000e+00	
0.000000e+00	1.218354e+00	1.225097e+00	4.166531e+01	2.054993e-01	2.540230e+05	1.013258e+05	2.881244e+02	9.994722e-02	1.113378e-03	0.000000e+00	
3.448276e-02	1.218354e+00	1.225094e+00	4.166432e+01	1.116102e+00	2.540227e+05	1.013255e+05	2.881240e+02	9.997973e-02	6.590383e-04	0.000000e+00	
3.448276e-02	1.250000e+00	1.225094e+00	4.166473e+01	1.115903e+00	2.540226e+05	1.013254e+05	2.881240e+02	9.998074e-02	6.060856e-04	0.000000e+00	
0.000000e+00	1.186709e+00	1.225097e+00	4.166524e+01	2.051850e-01	2.540231e+05	1.013258e+05	2.881244e+02	9.994701e-02	1.155765e-03	0.000000e+00	
3.448276e-02	1.186709e+00	1.225094e+00	4.166427e+01	1.116013e+00	2.540226e+05	1.013254e+05	2.881240e+02	9.997962e-02	6.323820e-04	0.000000e+00	
0.000000e+00	1.155063e+00	1.225097e+00	4.166520e+01	2.050159e-01	2.540231e+05	1.013258e+05	2.881244e+02	9.994690e-02	1.172932e-03	0.000000e+00	
3.448276e-02	1.155063e+00	1.225094e+00	4.166432e+01	1.115989e+00	2.540226e+05	1.013254e+05	2.881240e+02	9.997974e-02	6.324772e-04	0.000000e+00	
0.000000e+00	1.123418e+00	1.225097e+00	4.166519e+01	2.049314e-01	2.540231e+05	1.013258e+05	2.881244e+02	9.994689e-02	1.176989e-03	0.000000e+00	
3.448276e-02	1.123418e+00	1.225094e+00	4.166437e+01	1.115967e+00	2.540226e+05	1.013254e+05	2.881240e+02	9.997987e-02	6.273815e-04	0.000000e+00	
0.000000e+00	1.091772e+00	1.225097e+00	4.166518e+01	2.048927e-01	2.540231e+05	1.013258e+05	2.881244e+02	9.994686e-02	1.181041e-03	0.000000e+00	
3.448276e-02	1.091772e+00	1.225094e+00	4.166438e+01	1.115962e+00	2.540226e+05	1.013254e+05	2.881240e+02	9.997990e-02	6.281023e-04	0.000000e+00	
0.000000e+00	1.060127e+00	1.225097e+00	4.166516e+01	2.048625e-01	2.540231e+05	1.013258e+05	2.881244e+02	9.994680e-02	1.182598e-03	0.000000e+00	
3.448276e-02	1.060127e+00	1.225094e+00	4.166436e+01	1.115950e+00	2.540226e+05	1.013254e+05	2.881240e+02	9.997985e-02	6.274545e-04	0.000000e+00	
0.000000e+00	1.028481e+00	1.225097e+00	4.166513e+01	2.048355e-01	2.540231e+05	1.013258e+05	2.881244e+02	9.994673e-02	1.184474e-03	0.000000e+00	
3.448276e-02	1.028481e+00	1.225094e+00	4.166433e+01	1.115937e+00	2.540226e+05	1.013254e+05	2.881240e+02	9.997977e-02	6.284853e-04	0.000000e+00	
0.000000e+00	9.968354e-01	1.225097e+00	4.166510e+01	2.048082e-01	2.540231e+05	1.013258e+05	2.881244e+02	9.994666e-02	1.185793e-03	0.000000e+00	
3.448276e-02	9.968354e-01	1.225094e+00	4.166430e+01	1.115919e+00	2.540226e+05	1.013254e+05	2.881240e+02	9.997970e-02	6.291487e-04	0.000000e+00	
0.000000e+00	9.651899e-01	1.225097e+00	4.166508e+01	2.047814e-01	2.540231e+05	1.013258e+05	2.881244e+02	9.994660e-02	1.187164e-03	0.000000e+00	
3.448276e-02	9.651899e-01	1.225094e+00	4.166427e+01	1.115900e+00	2.540226e+05	1.013254e+05	2.881240e+02	9.997963e-02	6.302367e-04	0.000000e+00	
0.000000e+00	9.335443e-01	1.225097e+00	4.166505e+01	2.047543e-01	2.540231e+05	1.013258e+05	2.881244e+02	9.994654e-02	1.188286e-03	0.000000e+00	
3.448276e-02	9.335443e-01	1.225094e+00	4.166425e+01	1.115879e+00	2.540226e+05	1.013254e+05	2.881240e+02	9.997957e-02	6.311697e-04	0.000000e+00	
0.000000e+00	9.018987e-01	1.225097e+00	4.166503e+01	2.047267e-01	2.540231e+05	1.013258e+05	2.881244e+02	9.994649e-02	1.189338e-03	0.000000e+00	
3.448276e-02	9.018987e-01	1.225094e+00	4.166423e+01	1.115857e+00	2.540226e+05	1.013254e+05	2.881240e+02	9.997952e-02	6.321608e-04	0.000000e+00	
0.000000e+00	8.702532e-01	1.225097e+00	4.166501e+01	2.046984e-01	2.540231e+05	1.013258e+05	2.881244e+02	9.994644e-02	1.190240e-03	0.000000e+00	
3.448276e-02	8.702532e-01	1.225094e+00	4.166421e+01	1.115834e+00	2.540226e+05	1.013254e+05	2.881240e+02	9.997947e-02	6.330386e-04	0.000000e+00	
0.000000e+00	8.386076e-01	1.225097e+00	4.166499e+01	2.046697e-01	2.540231e+05	1.013258e+05	2.881244e+02	9.994640e-02	1.191048e-03	0.000000e+00	
3.448276e-02	8.386076e-01	1.225094e+00	4.166419e+01	1.115810e+00	2.540226e+05	1.013254e+05	2.881240e+02	9.997942e-02	6.338591e-04	0.000000e+00	
0.000000e+00	8.069620e-01	1.225097e+00	4.166498e+01	2.046406e-01	2.540231e+05	1.013258e+05	2.881244e+02	9.994636e-02	1.191740e-03	0.000000e+00	
3.448276e-02	8.069620e-01	1.225094e+00	4.166417e+01	1.115786e+00	2.540226e+05	1.013255e+05	2.881240e+02	9.997938e-02	6.345722e-04	0.000000e+00	
0.000000e+00	7.753165e-01	1.225097e+00	4.166497e+01	2.046111e-01	2.540231e+05	1.013258e+05	2.881244e+02	9.994633e-02	1.192330e-03	0.000000e+00	
3.448276e-02	7.753165e-01	1.225094e+00	4.166416e+01	1.115762e+00	2.540226e+05	1.013255e+05	2.881240e+02	9.997935e-02	6.351925e-04	0.000000e+00	
0.000000e+00	7.436709e-01	1.225097e+00	4.166496e+01	2.045813e-01	2.540231e+05	1.013258e+05	2.881244e+02	9.994630e-02	1.192815e-03	0.000000e+00	
3.448276e-02	7.436709e-01	1.225094e+00	4.166415e+01	1.115738e+00	2.540226e+05	1.013255e+05	2.881240e+02	9.997932e-02	6.357069e-04	0.000000e+00	
0.000000e+00	7.120253e-01	1.225097e+00	4.166495e+01	2.045513e-01	2.540231e+05	1.013258e+05	2.881244e+02	9.994629e-02	1.193201e-03	0.000000e+00	
3.448276e-02	7.120253e-01	1.225094e+00	4.166414e+01	1.115713e+00	2.540226e+05	1.013255e+05	2.881240e+02	9.997930e-02	6.361198e-04	0.000000e+00	
0.000000e+00	6.803797e-01	1.225097e+00	4.166494e+01	2.045213e-01	2.540231e+05	1.013258e+05	2.881244e+02	9.994627e-02	1.193490e-03	0.000000e+00	
3.448276e-02	6.803797e-01	1.225094e+00	4.166414e+01	1.115689e+00	2.540226e+05	1.013255e+05	2.881240e+02	9.997929e-02	6.364293e-04	0.000000e+00	
0.000000e+00	6.487342e-01	1.225097e+00	4.166494e+01	2.044913e-01	2.540231e+05	1.013258e+05	2.881244e+02	9.994627e-02	1.193687e-03	0.000000e+00	
3.448276e-02	6.487342e-01	1.225094e+00	4.166414e+01	1.115664e+00	2.540226e+05	1.013255e+05	2.881240e+02	9.997929e-02	6.366382e-04	0.000000e+00	
0.000000e+00	6.170886e-01	1.225097e+00	4.166494e+01	2.044616e-01	2.540231e+05	1.013258e+05	2.881244e+02	9.994627e-02	1.193795e-03	0.000000e+00	
3.448276e-02	6.170886e-01	1.225094e+00	4.166414e+01	1.115641e+00	2.540226e+05	1.013255e+05	2.881240e+02	9.997929e-02	6.367485e-04	0.000000e+00	
0.000000e+00	5.854430e-01	1.225097e+00	4.166494e+01	2.044323e-01	2.540231e+05	1.013258e+05	2.881244e+02	9.994627e-02	1.193817e-03	0.000000e+00	
3.448276e-02	5.854430e-01	1.225094e+00	4.166414e+01	1.115617e+00	2.540226e+05	1.013255e+05	2.881240e+02	9.997929e-02	6.367635e-04	0.000000e+00	
0.000000e+00	5.537975e-01	1.225097e+00	4.166495e+01	2.044038e-01	2.540231e+05	1.013258e+05	2.881244e+02	9.994629e-02	1.193757e-03	0.000000e+00	
3.448276e-02	5.537975e-01	1.225094e+00	4.166415e+01	1.115594e+00	2.540226e+05	1.013255e+05	2.881240e+02	9.997930e-02	6.366872e-04	0.000000e+00	
0.000000e+00	5.221519e-01	1.225097e+00	4.166496e+01	2.043760e-01	2.540231e+05	1.013258e+05	2.881244e+02	9.994630e-02	1.193618e-03	0.000000e+00	
3.448276e-02	5.221519e-01	1.225094e+00	4.166415e+01	1.115572e+00	2.540226e+05	1.013255e+05	2.881240e+02	9.997932e-02	6.365237e-04	0.000000e+00	
0.000000e+00	4.905063e-01	1.225097e+00	4.166497e+01	2.043491e-01	2.540231e+05	1.013258e+05	2.881244e+02	9.994633e-02	1.193405e-03	0.000000e+00	
3.448276e-02	4.905063e-01	1.225094e+00	4.166416e+01	1.115551e+00	2.540226e+05	1.013255e+05	2.881240e+02	9.997935e-02	6.362778e-04	0.000000e+00	
0.000000e+00	4.588608e-01	1.225097e+00	4.166498e+01	2.043233e-01	2.540231e+05	1.013258e+05	2.881244e+02	9.994635e-02	1.193121e-03	0.000000e+00	
3.448276e-02	4.588608e-01	1.225094e+00	4.166418e+01	1.115531e+00	2.540226e+05	1.013255e+05	2.881240e+02	9.997938e-02	6.359543e-04	0.000000e+00	
0.000000e+00	4.272152e-01	1.225097e+00	4.166499e+01	2.042988e-01	2.540231e+05	1.013258e+05	2.881244e+02	9.994638e-02	1.192771e-03	0.000000e+00	
3.448276e-02	4.272152e-01	1.225094e+00	4.166419e+01	1.115512e+00	2.540226e+05	1.013255e+05	2.881240e+02	9.997941e-02	6.355583e-04	0.000000e+00	
0.000000e+00	3.955696e-01	1.225097e+00	4.166501e+01	2.042755e-01	2.540231e+05	1.013258e+05	2.881244e+02	9.994642e-02	1.192360e-03	0.000000e+00	
3.448276e-02	3.955696e-01	1.225094e+00	4.166421e+01	1.115494e+00	2.540226e+05	1.013255e+05	2.881240e+02	9.997945e-02	6.350946e-04	0.000000e+00	
0.000000e+00	3.639241e-01	1.225097e+00	4.166502e+01	2.042535e-01	2.540231e+05	1.013258e+05	2.881244e+02	9.994646e-02	1.191891e-03	0.000000e+00	
3.448276e-02	3.639241e-01	1.225094e+00	4.166423e+01	1.115477e+00	2.540226e+05	1.013255e+05	2.881240e+02	9.997949e-02	6.345683e-04	0.000000e+00	
0.000000e+00	3.322785e-01	1.225097e+00	4.166504e+01	2.042330e-01	2.540231e+05	1.013258e+05	2.881244e+02	9.994650e-02	1.191369e-03	0.000000e+00	
3.448276e-02	3.322785e-01	1.225094e+00	4.166424e+01	1.115461e+00	2.540226e+05	1.013254e+05	2.881240e+02	9.997953e-02	6.339843e-04	0.000000e+00	
0.000000e+00	3.006329e-01	1.225097e+00	4.166506e+01	2.042139e-01	2.540231e+05	1.013258e+05	2.881244e+02	9.994655e-02	1.190798e-03	0.000000e+00	
3.448276e-02	3.006329e-01	1.225094e+00	4.166427e+01	1.115447e+00	2.540226e+05	1.013254e+05	2.881240e+02	9.997958e-02	6.333475e-04	0.000000e+00	
0.000000e+00	2.689873e-01	1.225097e+00	4.166508e+01	2.041964e-01	2.540231e+05	1.013258e+05	2.881244e+02	9.994660e-02	1.190183e-03	0.000000e+00	
3.448276e-02	2.689873e-01	1.225094e+00	4.166429e+01	1.115433e+00	2.540226e+05	1.013254e+05	2.881240e+02	9.997964e-02	6.326623e-04	0.000000e+00	
0.000000e+00	2.373418e-01	1.225097e+00	4.166510e+01	2.041805e-01	2.540231e+05	1.013258e+05	2.881244e+02	9.994665e-02	1.189527e-03	0.000000e+00	
3.448276e-02	2.373418e-01	1.225094e+00	4.166431e+01	1.115421e+00	2.540226e+05	1.013254e+05	2.881240e+02	9.997969e-02	6.319333e-04	0.000000e+00	
0.000000e+00	2.056962e-01	1.225097e+00	4.166512e+01	2.041661e-01	2.540231e+05	1.013258e+05	2.881244e+02	9.994670e-02	1.188834e-03	0.000000e+00	
3.448276e-02	2.056962e-01	1.225094e+00	4.166433e+01	1.115411e+00	2.540226e+05	1.013254e+05	2.881240e+02	9.997975e-02	6.311648e-04	0.000000e+00	
0.000000e+00	1.740506e-01	1.225097e+00	4.166515e+01	2.041534e-01	2.540231e+05	1.013258e+05	2.881244e+02	9.994676e-02	1.188109e-03	0.000000e+00	
3.448276e-02	1.740506e-01	1.225094e+00	4.166436e+01	1.115401e+00	2.540226e+05	1.013254e+05	2.881240e+02	9.997981e-02	6.303610e-04	0.000000e+00	
0.000000e+00	1.424051e-01	1.225097e+00	4.166517e+01	2.041424e-01	2.540231e+05	1.013258e+05	2.881244e+02	9.994681e-02	1.187355e-03	0.000000e+00	
3.448276e-02	1.424051e-01	1.225094e+00	4.166438e+01	1.115393e+00	2.540226e+05	1.013254e+05	2.881240e+02	9.997987e-02	6.295257e-04	0.000000e+00	
0.000000e+00	1.107595e-01	1.225097e+00	4.166519e+01	2.041330e-01	2.540231e+05	1.013258e+05	2.881244e+02	9.994687e-02	1.186575e-03	0.000000e+00	
3.448276e-02	1.107595e-01	1.225094e+00	4.166441e+01	1.115387e+00	2.540226e+05	1.013254e+05	2.881240e+02	9.997993e-02	6.286629e-04	0.000000e+00	
0.000000e+00	7.911392e-02	1.225097e+00	4.166522e+01	2.041253e-01	2.540231e+05	1.013258e+05	2.881244e+02	9.994693e-02	1.185773e-03	0.000000e+00	
3.448276e-02	7.911392e-02	1.225094e+00	4.166444e+01	1.115381e+00	2.540226e+05	1.013254e+05	2.881240e+02	9.997999e-02	6.277763e-04	0.000000e+00	
0.000000e+00	4.746835e-02	1.225097e+00	4.166524e+01	2.041193e-01	2.540231e+05	1.013258e+05	2.881244e+02	9.994699e-02	1.184952e-03	0.000000e+00	
3.448276e-02	4.746835e-02	1.225094e+00	4.166446e+01	1.115377e+00	2.540226e+05	1.013254e+05	2.881240e+02	9.998006e-02	6.268693e-04	0.000000e+00	
0.000000e+00	1.582278e-02	1.225097e+00	4.166527e+01	2.041150e-01	2.540231e+05	1.013258e+05	2.881244e+02	9.994706e-02	1.184117e-03	0.000000e+00	
3.448276e-02	1.582278e-02	1.225094e+00	4.166449e+01	1.115374e+00	2.540226e+05	1.013254e+05	2.881240e+02	9.998012e-02	6.259457e-04	0.000000e+00	
0.000000e+00	-1.582278e-02	1.225097e+00	4.166530e+01	2.041124e-01	2.540231e+05	1.013258e+05	2.881244e+02	9.994712e-02	1.183269e-03	0.000000e+00	
3.448276e-02	-1.582278e-02	1.225094e+00	4.166452e+01	1.115373e+00	2.540226e+05	1.013254e+05	2.881240e+02	9.998019e-02	6.250087e-04	0.000000e+00	
0.000000e+00	-4.746835e-02	1.225097e+00	4.166532e+01	2.041116e-01	2.540231e+05	1.013258e+05	2.881244e+02	9.994718e-02	1.182412e-03	0.000000e+00	
3.448276e-02	-4.746835e-02	1.225094e+00	4.166455e+01	1.115373e+00	2.540226e+05	1.013254e+05	2.881240e+02	9.998026e-02	6.240620e-04	0.000000e+00	
0.000000e+00	-7.911392e-02	1.225097e+00	4.166535e+01	2.041124e-01	2.540231e+05	1.013258e+05	2.881244e+02	9.994724e-02	1.181550e-03	0.000000e+00	
3.448276e-02	-7.911392e-02	1.225094e+00	4.166457e+01	1.115374e+00	2.540226e+05	1.013254e+05	2.881240e+02	9.998032e-02	6.231087e-04	0.000000e+00	
0.000000e+00	-1.107595e-01	1.225097e+00	4.166537e+01	2.041150e-01	2.540231e+05	1.013258e+05	2.881244e+02	9.994730e-02	1.180685e-03	0.000000e+00	
3.448276e-02	-1.107595e-01	1.225094e+00	4.166460e+01	1.115377e+00	2.540226e+05	1.013254e+05	2.881240e+02	9.998039e-02	6.221525e-04	0.000000e+00	
0.000000e+00	-1.424051e-01	1.225097e+00	4.166540e+01	2.041192e-01	2.540231e+05	1.013258e+05	2.881244e+02	9.994737e-02	1.179822e-03	0.000000e+00	
3.448276e-02	-1.424051e-01	1.225094e+00	4.166463e+01	1.115381e+00	2.540226e+05	1.013254e+05	2.881240e+02	9.998046e-02	6.211967e-04	0.000000e+00	
0.000000e+00	-1.740506e-01	1.225097e+00	4.166542e+01	2.041252e-01	2.540231e+05	1.013258e+05	2.881244e+02	9.994743e-02	1.178963e-03	0.000000e+00	
3.448276e-02	-1.740506e-01	1.225094e+00	4.166465e+01	1.115387e+00	2.540226e+05	1.013254e+05	2.881240e+02	9.998052e-02	6.202449e-04	0.000000e+00	
0.000000e+00	-2.056962e-01	1.225097e+00	4.166545e+01	2.041329e-01	2.540231e+05	1.013258e+05	2.881244e+02	9.994749e-02	1.178112e-03	0.000000e+00	
3.448276e-02	-2.056962e-01	1.225094e+00	4.166468e+01	1.115393e+00	2.540226e+05	1.013254e+05	2.881240e+02	9.998058e-02	6.193009e-04	0.000000e+00	
0.000000e+00	-2.373418e-01	1.225097e+00	4.166547e+01	2.041422e-01	2.540231e+05	1.013258e+05	2.881244e+02	9.994755e-02	1.177273e-03	0.000000e+00	
3.448276e-02	-2.373418e-01	1.225094e+00	4.166471e+01	1.115401e+00	2.540226e+05	1.013254e+05	2.881240e+02	9.998065e-02	6.183683e-04	0.000000e+00	
0.000000e+00	-2.689873e-01	1.225097e+00	4.166550e+01	2.041532e-01	2.540231e+05	1.013258e+05	2.881244e+02	9.994760e-02	1.176449e-03	0.000000e+00	
3.448276e-02	-2.689873e-01	1.225094e+00	4.166473e+01	1.115410e+00	2.540226e+05	1.013254e+05	2.881240e+02	9.998071e-02	6.174510e-04	0.000000e+00	
0.000000e+00	-3.006329e-01	1.225097e+00	4.166552e+01	2.041659e-01	2.540231e+05	1.013258e+05	2.881244e+02	9.994766e-02	1.175643e-03	0.000000e+00	
3.448276e-02	-3.006329e-01	1.225094e+00	4.166476e+01	1.115421e+00	2.540226e+05	1.013254e+05	2.881240e+02	9.998077e-02	6.165532e-04	0.000000e+00	
0.000000e+00	-3.322785e-01	1.225097e+00	4.166554e+01	2.041802e-01	2.540231e+05	1.013258e+05	2.881244e+02	9.994771e-02	1.174860e-03	0.000000e+00	
3.448276e-02	-3.322785e-01	1.225094e+00	4.166478e+01	1.115433e+00	2.540226e+05	1.013254e+05	2.881240e+02	9.998083e-02	6.156789e-04	0.000000e+00	
0.000000e+00	-3.639241e-01	1.225097e+00	4.166556e+01	2.041960e-01	2.540231e+05	1.013258e+05	2.881244e+02	9.994776e-02	1.174104e-03	0.000000e+00	
3.448276e-02	-3.639241e-01	1.225094e+00	4.166480e+01	1.115446e+00	2.540226e+05	1.013254e+05	2.881240e+02	9.998088e-02	6.148327e-04	0.000000e+00	
0.000000e+00	-3.955696e-01	1.225097e+00	4.166558e+01	2.042134e-01	2.540231e+05	1.013258e+05	2.881244e+02	9.994781e-02	1.173378e-03	0.000000e+00	
3.448276e-02	-3.955696e-01	1.225094e+00	4.166482e+01	1.115460e+00	2.540226e+05	1.013254e+05	2.881240e+02	9.998093e-02	6.140189e-04	0.000000e+00	
0.000000e+00	-4.272152e-01	1.225097e+00	4.166560e+01	2.042323e-01	2.540231e+05	1.013258e+05	2.881244e+02	9.994785e-02	1.172687e-03	0.000000e+00	
3.448276e-02	-4.272152e-01	1.225094e+00	4.166484e+01	1.115476e+00	2.540226e+05	1.013254e+05	2.881240e+02	9.998098e-02	6.132422e-04	0.000000e+00	
0.000000e+00	-4.588608e-01	1.225097e+00	4.166562e+01	2.042526e-01	2.540231e+05	1.013258e+05	2.881244e+02	9.994790e-02	1.172035e-03	0.000000e+00	
3.448276e-02	-4.588608e-01	1.225094e+00	4.166486e+01	1.115492e+00	2.540226e+05	1.013254e+05	2.881240e+02	9.998103e-02	6.125073e-04	0.000000e+00	
0.000000e+00	-4.905063e-01	1.225097e+00	4.166563e+01	2.042743e-01	2.540231e+05	1.013258e+05	2.881244e+02	9.994793e-02	1.171426e-03	0.000000e+00	
3.448276e-02	-4.905063e-01	1.225094e+00	4.166488e+01	1.115510e+00	2.540226e+05	1.013254e+05	2.881240e+02	9.998107e-02	6.118192e-04	0.000000e+00	
0.000000e+00	-5.221519e-01	1.225097e+00	4.166565e+01	2.042973e-01	2.540231e+05	1.013258e+05	2.881244e+02	9.994797e-02	1.170865e-03	0.000000e+00	
3.448276e-02	-5.221519e-01	1.225094e+00	4.166489e+01	1.115528e+00	2.540226e+05	1.013254e+05	2.881240e+02	9.998111e-02	6.111826e-04	0.000000e+00	
0.000000e+00	-5.537975e-01	1.225097e+00	4.166566e+01	2.043215e-01	2.540231e+05	1.013258e+05	2.881244e+02	9.994800e-02	1.170356e-03	0.000000e+00	
3.448276e-02	-5.537975e-01	1.225094e+00	4.166491e+01	1.115548e+00	2.540226e+05	1.013254e+05	2.881240e+02	9.998114e-02	6.106026e-04	0.000000e+00	
0.000000e+00	-5.854430e-01	1.225097e+00	4.166567e+01	2.043468e-01	2.540231e+05	1.013258e+05	2.881244e+02	9.994803e-02	1.169903e-03	0.000000e+00	
3.448276e-02	-5.854430e-01	1.225094e+00	4.166492e+01	1.115568e+00	2.540226e+05	1.013254e+05	2.881240e+02	9.998117e-02	6.100838e-04	0.000000e+00	
0.000000e+00	-6.170886e-01	1.225097e+00	4.166568e+01	2.043730e-01	2.540231e+05	1.013258e+05	2.881244e+02	9.994805e-02	1.169511e-03	0.000000e+00	
3.448276e-02	-6.170886e-01	1.225094e+00	4.166493e+01	1.115590e+00	2.540226e+05	1.013254e+05	2.881240e+02	9.998120e-02	6.096312e-04	0.000000e+00	
0.000000e+00	-6.487342e-01	1.225097e+00	4.166569e+01	2.044002e-01	2.540231e+05	1.013258e+05	2.881244e+02	9.994806e-02	1.169183e-03	0.000000e+00	
3.448276e-02	-6.487342e-01	1.225094e+00	4.166494e+01	1.115611e+00	2.540226e+05	1.013254e+05	2.881240e+02	9.998122e-02	6.092487e-04	0.000000e+00	
0.000000e+00	-6.803797e-01	1.225097e+00	4.166569e+01	2.044280e-01	2.540231e+05	1.013258e+05	2.881244e+02	9.994808e-02	1.168924e-03	0.000000e+00	
3.448276e-02	-6.803797e-01	1.225094e+00	4.166494e+01	1.115634e+00	2.540226e+05	1.013254e+05	2.881240e+02	9.998123e-02	6.089409e-04	0.000000e+00	
0.000000e+00	-7.120253e-01	1.225097e+00	4.166569e+01	2.044565e-01	2.540231e+05	1.013258e+05	2.881244e+02	9.994808e-02	1.168735e-03	0.000000e+00	
3.448276e-02	-7.120253e-01	1.225094e+00	4.166495e+01	1.115657e+00	2.540226e+05	1.013254e+05	2.881240e+02	9.998124e-02	6.087104e-04	0.000000e+00	
0.000000e+00	-7.436709e-01	1.225097e+00	4.166569e+01	2.044853e-01	2.540231e+05	1.013258e+05	2.881244e+02	9.994808e-02	1.168619e-03	0.000000e+00	
3.448276e-02	-7.436709e-01	1.225094e+00	4.166495e+01	1.115680e+00	2.540226e+05	1.013254e+05	2.881240e+02	9.998124e-02	6.085604e-04	0.000000e+00	
0.000000e+00	-7.753165e-01	1.225097e+00	4.166569e+01	2.045141e-01	2.540231e+05	1.013258e+05	2.881244e+02	9.994808e-02	1.168576e-03	0.000000e+00	
3.448276e-02	-7.753165e-01	1.225094e+00	4.166494e+01	1.115703e+00	2.540226e+05	1.013254e+05	2.881240e+02	9.998124e-02	6.084913e-04	0.000000e+00	
0.000000e+00	-8.069620e-01	1.225097e+00	4.166569e+01	2.045428e-01	2.540231e+05	1.013258e+05	2.881244e+02	9.994807e-02	1.168607e-03	0.000000e+00	
3.448276e-02	-8.069620e-01	1.225094e+00	4.166494e+01	1.115725e+00	2.540226e+05	1.013254e+05	2.881240e+02	9.998123e-02	6.085019e-04	0.000000e+00	
0.000000e+00	-8.386076e-01	1.225097e+00	4.166568e+01	2.045708e-01	2.540231e+05	1.013258e+05	2.881244e+02	9.994805e-02	1.168714e-03	0.000000e+00	
3.448276e-02	-8.386076e-01	1.225094e+00	4.166493e+01	1.115747e+00	2.540226e+05	1.013254e+05	2.881240e+02	9.998121e-02	6.085894e-04	0.000000e+00	
0.000000e+00	-8.702532e-01	1.225097e+00	4.166567e+01	2.045978e-01	2.540231e+05	1.013258e+05	2.881244e+02	9.994803e-02	1.168896e-03	0.000000e+00	
3.448276e-02	-8.702532e-01	1.225094e+00	4.166492e+01	1.115769e+00	2.540226e+05	1.013254e+05	2.881240e+02	9.998119e-02	6.087409e-04	0.000000e+00	
0.000000e+00	-9.018987e-01	1.225097e+00	4.166566e+01	2.046237e-01	2.540231e+05	1.013258e+05	2.881244e+02	9.994800e-02	1.169168e-03	0.000000e+00	
3.448276e-02	-9.018987e-01	1.225094e+00	4.166490e+01	1.115789e+00	2.540226e+05	1.013254e+05	2.881240e+02	9.998115e-02	6.089513e-04	0.000000e+00	
0.000000e+00	-9.335443e-01	1.225097e+00	4.166564e+01	2.046485e-01	2.540231e+05	1.013258e+05	2.881244e+02	9.994796e-02	1.169518e-03	0.000000e+00	
3.448276e-02	-9.335443e-01	1.225094e+00	4.166489e+01	1.115807e+00	2.540226e+05	1.013254e+05	2.881240e+02	9.998111e-02	6.091794e-04	0.000000e+00	
0.000000e+00	-9.651899e-01	1.225097e+00	4.166562e+01	2.046725e-01	2.540231e+05	1.013258e+05	2.881244e+02	9.994792e-02	1.170006e-03	0.000000e+00	
3.448276e-02	-9.651899e-01	1.225094e+00	4.166487e+01	1.115824e+00	2.540226e+05	1.013254e+05	2.881240e+02	9.998107e-02	6.094238e-04	0.000000e+00	
0.000000e+00	-9.968354e-01	1.225097e+00	4.166561e+01	2.046966e-01	2.540231e+05	1.013258e+05	2.881244e+02	9.994788e-02	1.170598e-03	0.000000e+00	
3.448276e-02	-9.968354e-01	1.225094e+00	4.166485e+01	1.115840e+00	2.540226e+05	1.013254e+05	2.881240e+02	9.998103e-02	6.095681e-04	0.000000e+00	
0.000000e+00	-1.028481e+00	1.225097e+00	4.166559e+01	2.047223e-01	2.540231e+05	1.013258e+05	2.881244e+02	9.994785e-02	1.171478e-03	0.000000e+00	
3.448276e-02	-1.028481e+00	1.225094e+00	4.166484e+01	1.115855e+00	2.540226e+05	1.013254e+05	2.881240e+02	9.998100e-02	6.096055e-04	0.000000e+00	
0.000000e+00	-1.060127e+00	1.225097e+00	4.166558e+01	2.047525e-01	2.540231e+05	1.013258e+05	2.881244e+02	9.994782e-02	1.172529e-03	0.000000e+00	
3.448276e-02	-1.060127e+00	1.225094e+00	4.166483e+01	1.115868e+00	2.540226e+05	1.013254e+05	2.881240e+02	9.998099e-02	6.092393e-04	0.000000e+00	
0.000000e+00	-1.091772e+00	1.225097e+00	4.166555e+01	2.047915e-01	2.540231e+05	1.013258e+05	2.881244e+02	9.994775e-02	1.174272e-03	0.000000e+00	
3.448276e-02	-1.091772e+00	1.225094e+00	4.166481e+01	1.115881e+00	2.540226e+05	1.013254e+05	2.881240e+02	9.998094e-02	6.083241e-04	0.000000e+00	
0.000000e+00	-1.123418e+00	1.225097e+00	4.166548e+01	2.048497e-01	2.540231e+05	1.013258e+05	2.881244e+02	9.994758e-02	1.176811e-03	0.000000e+00	
3.448276e-02	-1.123418e+00	1.225094e+00	4.166477e+01	1.115895e+00	2.540226e+05	1.013254e+05	2.881240e+02	9.998084e-02	6.063634e-04	0.000000e+00	
0.000000e+00	-1.155063e+00	1.225097e+00	4.166537e+01	2.049527e-01	2.540231e+05	1.013258e+05	2.881244e+02	9.994732e-02	1.181696e-03	0.000000e+00	
3.448276e-02	-1.155063e+00	1.225094e+00	4.166471e+01	1.115917e+00	2.540226e+05	1.013254e+05	2.881240e+02	9.998071e-02	6.025489e-04	0.000000e+00	
0.000000e+00	-1.186709e+00	1.225097e+00	4.166529e+01	2.051433e-01	2.540231e+05	1.013258e+05	2.881244e+02	9.994710e-02	1.193090e-03	0.000000e+00	
3.448276e-02	-1.186709e+00	1.225094e+00	4.166471e+01	1.115953e+00	2.540226e+05	1.013254e+05	2.881240e+02	9.998071e-02	5.955198e-04	0.000000e+00	
0.000000e+00	-1.218354e+00	1.225098e+00	4.166537e+01	2.054492e-01	2.540232e+05	1.013259e+05	2.881244e+02	9.994727e-02	1.238652e-03	0.000000e+00	
3.448276e-02	-1.218354e+00	1.225094e+00	4.166482e+01	1.116018e+00	2.540225e+05	1.013254e+05	2.881240e+02	9.998100e-02	5.767219e-04	0.000000e+00	
6.896552e-02	1.218354e+00	1.225084e+00	4.166483e+01	1.831053e+00	2.540209e+05	1.013244e+05	2.881233e+02	1.000425e-01	-8.284614e-04	0.000000e+00	
6.896552e-02	1.250000e+00	1.225084e+00	4.166507e+01	1.830845e+00	2.540209e+05	1.013244e+05	2.881233e+02	1.000431e-01	-8.464908e-04	0.000000e+00	
6.896552e-02	1.186709e+00	1.225084e+00	4.166468e+01	1.831089e+00	2.540209e+05	1.013244e+05	2.881233e+02	1.000422e-01	-8.458598e-04	0.000000e+00	
6.896552e-02	1.155063e+00	1.225084e+00	4.166468e+01	1.831141e+00	2.540209e+05	1.013244e+05	2.881233e+02	1.000422e-01	-8.365240e-04	0.000000e+00	
6.896552e-02	1.123418e+00	1.225084e+00	4.166471e+01	1.831140e+00	2.540209e+05	1.013244e+05	2.881233e+02	1.000422e-01	-8.381095e-04	0.000000e+00	
6.896552e-02	1.091772e+00	1.225084e+00	4.166471e+01	1.831144e+00	2.540209e+05	1.013244e+05	2.881233e+02	1.000422e-01	-8.345292e-04	0.000000e+00	
6.896552e-02	1.060127e+00	1.225084e+00	4.166468e+01	1.831134e+00	2.540209e+05	1.013244e+05	2.881233e+02	1.000422e-01	-8.336742e-04	0.000000e+00	
6.896552e-02	1.028481e+00	1.225084e+00	4.166464e+01	1.831124e+00	2.540209e+05	1.013244e+05	2.881233e+02	1.000421e-01	-8.316076e-04	0.000000e+00	
6.896552e-02	9.968354e-01	1.225084e+00	4.166461e+01	1.831109e+00	2.540209e+05	1.013244e+05	2.881233e+02	1.000420e-01	-8.303810e-04	0.000000e+00	
6.896552e-02	9.651899e-01	1.225084e+00	4.166458e+01	1.831093e+00	2.540209e+05	1.013244e+05	2.881233e+02	1.000419e-01	-8.288997e-04	0.000000e+00	
6.896552e-02	9.335443e-01	1.225084e+00	4.166455e+01	1.831076e+00	2.540209e+05	1.013244e+05	2.881233e+02	1.000418e-01	-8.277413e-04	0.000000e+00	
6.896552e-02	9.018987e-01	1.225084e+00	4.166453e+01	1.831057e+00	2.540209e+05	1.013244e+05	2.881233e+02	1.000418e-01	-8.265946e-04	0.000000e+00	
6.896552e-02	8.702532e-01	1.225084e+00	4.166451e+01	1.831038e+00	2.540209e+05	1.013244e+05	2.881233e+02	1.000417e-01	-8.256266e-04	0.000000e+00	
6.896552e-02	8.386076e-01	1.225084e+00	4.166449e+01	1.831018e+00	2.540209e+05	1.013244e+05	2.881233e+02	1.000417e-01	-8.247479e-04	0.000000e+00	
6.896552e-02	8.069620e-01	1.225084e+00	4.166447e+01	1.830998e+00	2.540209e+05	1.013244e+05	2.881233e+02	1.000416e-01	-8.240051e-04	0.000000e+00	
6.896552e-02	7.753165e-01	1.225084e+00	4.166446e+01	1.830978e+00	2.540209e+05	1.013244e+05	2.881233e+02	1.000416e-01	-8.233711e-04	0.000000e+00	
6.896552e-02	7.436709e-01	1.225084e+00	4.166445e+01	1.830957e+00	2.540209e+05	1.013244e+05	2.881233e+02	1.000416e-01	-8.228567e-04	0.000000e+00	
6.896552e-02	7.120253e-01	1.225084e+00	4.166444e+01	1.830937e+00	2.540209e+05	1.013244e+05	2.881233e+02	1.000416e-01	-8.224525e-04	0.000000e+00	
6.896552e-02	6.803797e-01	1.225084e+00	4.166444e+01	1.830917e+00	2.540209e+05	1.013244e+05	2.881233e+02	1.000415e-01	-8.221586e-04	0.000000e+00	
6.896552e-02	6.487342e-01	1.225084e+00	4.166444e+01	1.830897e+00	2.540209e+05	1.013244e+05	2.881233e+02	1.000415e-01	-8.219699e-04	0.000000e+00	
6.896552e-02	6.170886e-01	1.225084e+00	4.166444e+01	1.830878e+00	2.540209e+05	1.013244e+05	2.881233e+02	1.000415e-01	-8.218831e-04	0.000000e+00	
6.896552e-02	5.854430e-01	1.225084e+00	4.166444e+01	1.830859e+00	2.540209e+05	1.013244e+05	2.881233e+02	1.000415e-01	-8.218936e-04	0.000000e+00	
6.896552e-02	5.537975e-01	1.225084e+00	4.166445e+01	1.830841e+00	2.540209e+05	1.013244e+05	2.881233e+02	1.000416e-01	-8.219968e-04	0.000000e+00	
6.896552e-02	5.221519e-01	1.225084e+00	4.166446e+01	1.830823e+00	2.540209e+05	1.013244e+05	2.881233e+02	1.000416e-01	-8.221879e-04	0.000000e+00	
6.896552e-02	4.905063e-01	1.225084e+00	4.166447e+01	1.830807e+00	2.540209e+05	1.013244e+05	2.881233e+02	1.000416e-01	-8.224617e-04	0.000000e+00	
6.896552e-02	4.588608e-01	1.225084e+00	4.166448e+01	1.830791e+00	2.540209e+05	1.013244e+05	2.881233e+02	1.000416e-01	-8.228130e-04	0.000000e+00	
6.896552e-02	4.272152e-01	1.225084e+00	4.166450e+01	1.830776e+00	2.540209e+05	1.013244e+05	2.881233e+02	1.000417e-01	-8.232366e-04	0.000000e+00	
6.896552e-02	3.955696e-01	1.225084e+00	4.166452e+01	1.830762e+00	2.540209e+05	1.013244e+05	2.881233e+02	1.000417e-01	-8.237272e-04	0.000000e+00	
6.896552e-02	3.639241e-01	1.225084e+00	4.166454e+01	1.830749e+00	2.540209e+05	1.013244e+05	2.881233e+02	1.000418e-01	-8.242797e-04	0.000000e+00	
6.896552e-02	3.322785e-01	1.225084e+00	4.166456e+01	1.830737e+00	2.540209e+05	1.013244e+05	2.881233e+02	1.000418e-01	-8.248890e-04	0.000000e+00	
6.896552e-02	3.006329e-01	1.225084e+00	4.166458e+01	1.830726e+00	2.540209e+05	1.013244e+05	2.881233e+02	1.000419e-01	-8.255501e-04	0.000000e+00	
6.896552e-02	2.689873e-01	1.225084e+00	4.166460e+01	1.830716e+00	2.540209e+05	1.013244e+05	2.881233e+02	1.000419e-01	-8.262585e-04	0.000000e+00	
6.896552e-02	2.373418e-01	1.225084e+00	4.166462e+01	1.830708e+00	2.540209e+05	1.013244e+05	2.881233e+02	1.000420e-01	-8.270096e-04	0.000000e+00	
6.896552e-02	2.056962e-01	1.225084e+00	4.166465e+01	1.830700e+00	2.540209e+05	1.013244e+05	2.881233e+02	1.000420e-01	-8.277990e-04	0.000000e+00	
6.896552e-02	1.740506e-01	1.225084e+00	4.166468e+01	1.830693e+00	2.540209e+05	1.013244e+05	2.881233e+02	1.000421e-01	-8.286226e-04	0.000000e+00	
6.896552e-02	1.424051e-01	1.225084e+00	4.166470e+01	1.830687e+00	2.540209e+05	1.013244e+05	2.881233e+02	1.000422e-01	-8.294765e-04	0.000000e+00	
6.896552e-02	1.107595e-01	1.225084e+00	4.166473e+01	1.830683e+00	2.540209e+05	1.013244e+05	2.881233e+02	1.000422e-01	-8.303568e-04	0.000000e+00	
6.896552e-02	7.911392e-02	1.225084e+00	4.166476e+01	1.830679e+00	2.540209e+05	1.013244e+05	2.881233e+02	1.000423e-01	-8.312599e-04	0.000000e+00	
6.896552e-02	4.746835e-02	1.225084e+00	4.166479e+01	1.830677e+00	2.540209e+05	1.013244e+05	2.881233e+02	1.000424e-01	-8.321822e-04	0.000000e+00	
6.896552e-02	1.582278e-02	1.225084e+00	4.166481e+01	1.830675e+00	2.540209e+05	1.013244e+05	2.881233e+02	1.000424e-01	-8.331203e-04	0.000000e+00	
6.896552e-02	-1.582278e-02	1.225084e+00	4.166484e+01	1.830675e+00	2.540209e+05	1.013244e+05	2.881233e+02	1.000425e-01	-8.340708e-04	0.000000e+00	
6.896552e-02	-4.746835e-02	1.225084e+00	4.166487e+01	1.830675e+00	2.540209e+05	1.013244e+05	2.881233e+02	1.000426e-01	-8.350303e-04	0.000000e+00	
6.896552e-02	-7.911392e-02	1.225084e+00	4.166490e+01	1.830677e+00	2.540209e+05	1.013244e+05	2.881233e+02	1.000426e-01	-8.359955e-04	0.000000e+00	
6.896552e-02	-1.107595e-01	1.225084e+00	4.166493e+01	1.830680e+00	2.540209e+05	1.013244e+05	2.881233e+02	1.000427e-01	-8.369630e-04	0.000000e+00	
6.896552e-02	-1.424051e-01	1.225084e+00	4.166496e+01	1.830684e+00	2.540209e+05	1.013244e+05	2.881233e+02	1.000428e-01	-8.379294e-04	0.000000e+00	
6.896552e-02	-1.740506e-01	1.225084e+00	4.166498e+01	1.830688e+00	2.540209e+05	1.013244e+05	2.881233e+02	1.000428e-01	-8.388911e-04	0.000000e+00	
6.896552e-02	-2.056962e-01	1.225084e+00	4.166501e+01	1.830694e+00	2.540209e+05	1.013244e+05	2.881233e+02	1.000429e-01	-8.398446e-04	0.000000e+00	