TITLE = "Visualization of the volumetric solution"
VARIABLES = "x","y","Density","Momentum_x","Momentum_y","Energy","Pressure","Temperature","Mach","C<sub>p</sub>","Roe_Dissipation"
ZONE NODES= 3200, ELEMENTS= 3081, DATAPACKING=POINT, ZONETYPE=FEQUADRILATERAL
1.000000e+00	1.250000e+00	1.225059e+00	4.166508e+01	3.645406e+00	2.540179e+05	1.013216e+05	2.881211e+02	1.003309e-01	-4.849386e-03	0.000000e+00	
1.000000e+00	1.218354e+00	1.225060e+00	4.166494e+01	3.645370e+00	2.540178e+05	1.013216e+05	2.881210e+02	1.003305e-01	-4.856789e-03	0.000000e+00	
1.051282e+00	1.218354e+00	1.225059e+00	4.166504e+01	3.645410e+00	2.540179e+05	1.013216e+05	2.881212e+02	1.003308e-01	-4.823706e-03	0.000000e+00	
1.051282e+00	1.250000e+00	1.225059e+00	4.166519e+01	3.645440e+00	2.540179e+05	1.013216e+05	2.881213e+02	1.003312e-01	-4.815484e-03	0.000000e+00	
1.000000e+00	1.186709e+00	1.225060e+00	4.166482e+01	3.645368e+00	2.540178e+05	1.013216e+05	2.881210e+02	1.003302e-01	-4.851250e-03	0.000000e+00	
1.051282e+00	1.186709e+00	1.225059e+00	4.166491e+01	3.645413e+00	2.540179e+05	1.013216e+05	2.881212e+02	1.003305e-01	-4.818023e-03	0.000000e+00	
1.000000e+00	1.155063e+00	1.225060e+00	4.166477e+01	3.645353e+00	2.540178e+05	1.013216e+05	2.881209e+02	1.003301e-01	-4.852807e-03	0.000000e+00	
1.051282e+00	1.155063e+00	1.225060e+00	4.166486e+01	3.645391e+00	2.540179e+05	1.013216e+05	2.881211e+02	1.003303e-01	-4.821537e-03	0.000000e+00	
1.000000e+00	1.123418e+00	1.225060e+00	4.166473e+01	3.645343e+00	2.540178e+05	1.013216e+05	2.881209e+02	1.003300e-01	-4.851718e-03	0.000000e+00	
1.051282e+00	1.123418e+00	1.225060e+00	4.166482e+01	3.645379e+00	2.540179e+05	1.013216e+05	2.881211e+02	1.003302e-01	-4.819851e-03	0.000000e+00	
1.000000e+00	1.091772e+00	1.225061e+00	4.166468e+01	3.645329e+00	2.540178e+05	1.013216e+05	2.881208e+02	1.003299e-01	-4.852532e-03	0.000000e+00	
1.051282e+00	1.091772e+00	1.225060e+00	4.166477e+01	3.645360e+00	2.540179e+05	1.013216e+05	2.881210e+02	1.003301e-01	-4.821053e-03	0.000000e+00	
1.000000e+00	1.060127e+00	1.225061e+00	4.166462e+01	3.645318e+00	2.540178e+05	1.013216e+05	2.881208e+02	1.003297e-01	-4.852502e-03	0.000000e+00	
1.051282e+00	1.060127e+00	1.225060e+00	4.166472e+01	3.645346e+00	2.540179e+05	1.013216e+05	2.881210e+02	1.003300e-01	-4.820651e-03	0.000000e+00	
1.000000e+00	1.028481e+00	1.225061e+00	4.166457e+01	3.645307e+00	2.540178e+05	1.013216e+05	2.881208e+02	1.003296e-01	-4.852913e-03	0.000000e+00	
1.051282e+00	1.028481e+00	1.225060e+00	4.166467e+01	3.645332e+00	2.540179e+05	1.013216e+05	2.881210e+02	1.003298e-01	-4.821173e-03	0.000000e+00	
1.000000e+00	9.968354e-01	1.225061e+00	4.166453e+01	3.645298e+00	2.540178e+05	1.013216e+05	2.881208e+02	1.003295e-01	-4.853051e-03	0.000000e+00	
1.051282e+00	9.968354e-01	1.225060e+00	4.166463e+01	3.645321e+00	2.540179e+05	1.013216e+05	2.881210e+02	1.003298e-01	-4.821207e-03	0.000000e+00	
1.000000e+00	9.651899e-01	1.225061e+00	4.166450e+01	3.645289e+00	2.540178e+05	1.013216e+05	2.881208e+02	1.003294e-01	-4.853339e-03	0.000000e+00	
1.051282e+00	9.651899e-01	1.225060e+00	4.166460e+01	3.645310e+00	2.540179e+05	1.013216e+05	2.881210e+02	1.003297e-01	-4.821536e-03	0.000000e+00	
1.000000e+00	9.335443e-01	1.225061e+00	4.166447e+01	3.645282e+00	2.540178e+05	1.013216e+05	2.881208e+02	1.003294e-01	-4.853570e-03	0.000000e+00	
1.051282e+00	9.335443e-01	1.225060e+00	4.166458e+01	3.645301e+00	2.540179e+05	1.013216e+05	2.881210e+02	1.003296e-01	-4.821725e-03	0.000000e+00	
1.000000e+00	9.018987e-01	1.225061e+00	4.166446e+01	3.645275e+00	2.540178e+05	1.013216e+05	2.881208e+02	1.003293e-01	-4.853855e-03	0.000000e+00	
1.051282e+00	9.018987e-01	1.225060e+00	4.166457e+01	3.645293e+00	2.540179e+05	1.013216e+05	2.881210e+02	1.003296e-01	-4.822016e-03	0.000000e+00	
1.000000e+00	8.702532e-01	1.225061e+00	4.166444e+01	3.645270e+00	2.540178e+05	1.013216e+05	2.881208e+02	1.003293e-01	-4.854138e-03	0.000000e+00	
1.051282e+00	8.702532e-01	1.225060e+00	4.166456e+01	3.645287e+00	2.540179e+05	1.013216e+05	2.881210e+02	1.003296e-01	-4.822280e-03	0.000000e+00	
1.000000e+00	8.386076e-01	1.225061e+00	4.166444e+01	3.645266e+00	2.540178e+05	1.013216e+05	2.881208e+02	1.003293e-01	-4.854451e-03	0.000000e+00	
1.051282e+00	8.386076e-01	1.225060e+00	4.166455e+01	3.645281e+00	2.540179e+05	1.013216e+05	2.881210e+02	1.003296e-01	-4.822585e-03	0.000000e+00	
1.000000e+00	8.069620e-01	1.225061e+00	4.166444e+01	3.645262e+00	2.540178e+05	1.013216e+05	2.881208e+02	1.003293e-01	-4.854780e-03	0.000000e+00	
1.051282e+00	8.069620e-01	1.225060e+00	4.166455e+01	3.645277e+00	2.540179e+05	1.013216e+05	2.881210e+02	1.003296e-01	-4.822896e-03	0.000000e+00	
1.000000e+00	7.753165e-01	1.225061e+00	4.166444e+01	3.645260e+00	2.540178e+05	1.013216e+05	2.881208e+02	1.003293e-01	-4.855131e-03	0.000000e+00	
1.051282e+00	7.753165e-01	1.225060e+00	4.166456e+01	3.645273e+00	2.540179e+05	1.013216e+05	2.881210e+02	1.003296e-01	-4.823228e-03	0.000000e+00	
1.000000e+00	7.436709e-01	1.225061e+00	4.166445e+01	3.645258e+00	2.540178e+05	1.013216e+05	2.881208e+02	1.003293e-01	-4.855499e-03	0.000000e+00	
1.051282e+00	7.436709e-01	1.225060e+00	4.166457e+01	3.645270e+00	2.540179e+05	1.013216e+05	2.881210e+02	1.003296e-01	-4.823572e-03	0.000000e+00	
1.000000e+00	7.120253e-01	1.225061e+00	4.166446e+01	3.645256e+00	2.540178e+05	1.013216e+05	2.881208e+02	1.003293e-01	-4.855884e-03	0.000000e+00	
1.051282e+00	7.120253e-01	1.225060e+00	4.166458e+01	3.645268e+00	2.540179e+05	1.013216e+05	2.881210e+02	1.003296e-01	-4.823931e-03	0.000000e+00	
1.000000e+00	6.803797e-01	1.225061e+00	4.166448e+01	3.645255e+00	2.540178e+05	1.013216e+05	2.881208e+02	1.003294e-01	-4.856283e-03	0.000000e+00	
1.051282e+00	6.803797e-01	1.225060e+00	4.166460e+01	3.645267e+00	2.540179e+05	1.013216e+05	2.881210e+02	1.003297e-01	-4.824302e-03	0.000000e+00	
1.000000e+00	6.487342e-01	1.225061e+00	4.166450e+01	3.645255e+00	2.540178e+05	1.013216e+05	2.881208e+02	1.003294e-01	-4.856695e-03	0.000000e+00	
1.051282e+00	6.487342e-01	1.225060e+00	4.166462e+01	3.645266e+00	2.540179e+05	1.013216e+05	2.881210e+02	1.003297e-01	-4.824684e-03	0.000000e+00	
1.000000e+00	6.170886e-01	1.225061e+00	4.166452e+01	3.645255e+00	2.540178e+05	1.013216e+05	2.881208e+02	1.003295e-01	-4.857119e-03	0.000000e+00	
1.051282e+00	6.170886e-01	1.225060e+00	4.166464e+01	3.645265e+00	2.540179e+05	1.013216e+05	2.881210e+02	1.003298e-01	-4.825075e-03	0.000000e+00	
1.000000e+00	5.854430e-01	1.225061e+00	4.166454e+01	3.645256e+00	2.540178e+05	1.013216e+05	2.881208e+02	1.003295e-01	-4.857552e-03	0.000000e+00	
1.051282e+00	5.854430e-01	1.225060e+00	4.166466e+01	3.645265e+00	2.540179e+05	1.013216e+05	2.881210e+02	1.003298e-01	-4.825474e-03	0.000000e+00	
1.000000e+00	5.537975e-01	1.225061e+00	4.166457e+01	3.645257e+00	2.540178e+05	1.013216e+05	2.881208e+02	1.003296e-01	-4.857994e-03	0.000000e+00	
1.051282e+00	5.537975e-01	1.225060e+00	4.166469e+01	3.645266e+00	2.540179e+05	1.013216e+05	2.881210e+02	1.003299e-01	-4.825881e-03	0.000000e+00	
1.000000e+00	5.221519e-01	1.225061e+00	4.166459e+01	3.645258e+00	2.540178e+05	1.013216e+05	2.881208e+02	1.003296e-01	-4.858443e-03	0.000000e+00	
1.051282e+00	5.221519e-01	1.225060e+00	4.166471e+01	3.645267e+00	2.540179e+05	1.013216e+05	2.881210e+02	1.003299e-01	-4.826292e-03	0.000000e+00	
1.000000e+00	4.905063e-01	1.225061e+00	4.166462e+01	3.645259e+00	2.540178e+05	1.013216e+05	2.881208e+02	1.003297e-01	-4.858897e-03	0.000000e+00	
1.051282e+00	4.905063e-01	1.225060e+00	4.166474e+01	3.645268e+00	2.540179e+05	1.013216e+05	2.881210e+02	1.003300e-01	-4.826707e-03	0.000000e+00	
1.000000e+00	4.588608e-01	1.225061e+00	4.166465e+01	3.645261e+00	2.540178e+05	1.013216e+05	2.881208e+02	1.003298e-01	-4.859355e-03	0.000000e+00	
1.051282e+00	4.588608e-01	1.225060e+00	4.166477e+01	3.645270e+00	2.540179e+05	1.013216e+05	2.881210e+02	1.003301e-01	-4.827125e-03	0.000000e+00	
1.000000e+00	4.272152e-01	1.225061e+00	4.166468e+01	3.645263e+00	2.540178e+05	1.013216e+05	2.881208e+02	1.003299e-01	-4.859815e-03	0.000000e+00	
1.051282e+00	4.272152e-01	1.225060e+00	4.166480e+01	3.645272e+00	2.540179e+05	1.013216e+05	2.881210e+02	1.003302e-01	-4.827543e-03	0.000000e+00	
1.000000e+00	3.955696e-01	1.225061e+00	4.166471e+01	3.645266e+00	2.540178e+05	1.013216e+05	2.881208e+02	1.003299e-01	-4.860275e-03	0.000000e+00	
1.051282e+00	3.955696e-01	1.225060e+00	4.166484e+01	3.645274e+00	2.540179e+05	1.013216e+05	2.881210e+02	1.003302e-01	-4.827961e-03	0.000000e+00	
1.000000e+00	3.639241e-01	1.225061e+00	4.166474e+01	3.645268e+00	2.540178e+05	1.013216e+05	2.881208e+02	1.003300e-01	-4.860734e-03	0.000000e+00	
1.051282e+00	3.639241e-01	1.225060e+00	4.166487e+01	3.645277e+00	2.540179e+05	1.013216e+05	2.881210e+02	1.003303e-01	-4.828377e-03	0.000000e+00	
1.000000e+00	3.322785e-01	1.225061e+00	4.166478e+01	3.645271e+00	2.540178e+05	1.013216e+05	2.881208e+02	1.003301e-01	-4.861190e-03	0.000000e+00	
1.051282e+00	3.322785e-01	1.225060e+00	4.166490e+01	3.645279e+00	2.540179e+05	1.013216e+05	2.881210e+02	1.003304e-01	-4.828789e-03	0.000000e+00	
1.000000e+00	3.006329e-01	1.225061e+00	4.166481e+01	3.645274e+00	2.540178e+05	1.013216e+05	2.881208e+02	1.003302e-01	-4.861642e-03	0.000000e+00	
1.051282e+00	3.006329e-01	1.225060e+00	4.166494e+01	3.645282e+00	2.540179e+05	1.013216e+05	2.881210e+02	1.003305e-01	-4.829197e-03	0.000000e+00	
1.000000e+00	2.689873e-01	1.225061e+00	4.166485e+01	3.645277e+00	2.540178e+05	1.013216e+05	2.881208e+02	1.003303e-01	-4.862089e-03	0.000000e+00	
1.051282e+00	2.689873e-01	1.225060e+00	4.166497e+01	3.645286e+00	2.540179e+05	1.013216e+05	2.881210e+02	1.003306e-01	-4.829599e-03	0.000000e+00	
1.000000e+00	2.373418e-01	1.225060e+00	4.166488e+01	3.645280e+00	2.540178e+05	1.013216e+05	2.881208e+02	1.003303e-01	-4.862529e-03	0.000000e+00	
1.051282e+00	2.373418e-01	1.225060e+00	4.166500e+01	3.645289e+00	2.540179e+05	1.013216e+05	2.881210e+02	1.003306e-01	-4.829994e-03	0.000000e+00	
1.000000e+00	2.056962e-01	1.225060e+00	4.166491e+01	3.645283e+00	2.540178e+05	1.013216e+05	2.881208e+02	1.003304e-01	-4.862962e-03	0.000000e+00	
1.051282e+00	2.056962e-01	1.225060e+00	4.166504e+01	3.645292e+00	2.540179e+05	1.013216e+05	2.881210e+02	1.003307e-01	-4.830380e-03	0.000000e+00	
1.000000e+00	1.740506e-01	1.225060e+00	4.166495e+01	3.645287e+00	2.540178e+05	1.013216e+05	2.881208e+02	1.003305e-01	-4.863385e-03	0.000000e+00	
1.051282e+00	1.740506e-01	1.225060e+00	4.166508e+01	3.645296e+00	2.540179e+05	1.013216e+05	2.881210e+02	1.003308e-01	-4.830757e-03	0.000000e+00	
1.000000e+00	1.424051e-01	1.225060e+00	4.166499e+01	3.645290e+00	2.540178e+05	1.013216e+05	2.881208e+02	1.003306e-01	-4.863798e-03	0.000000e+00	
1.051282e+00	1.424051e-01	1.225060e+00	4.166511e+01	3.645300e+00	2.540179e+05	1.013216e+05	2.881210e+02	1.003309e-01	-4.831123e-03	0.000000e+00	
1.000000e+00	1.107595e-01	1.225060e+00	4.166502e+01	3.645294e+00	2.540178e+05	1.013215e+05	2.881208e+02	1.003307e-01	-4.864200e-03	0.000000e+00	
1.051282e+00	1.107595e-01	1.225060e+00	4.166515e+01	3.645304e+00	2.540179e+05	1.013216e+05	2.881210e+02	1.003310e-01	-4.831478e-03	0.000000e+00	
1.000000e+00	7.911392e-02	1.225060e+00	4.166506e+01	3.645298e+00	2.540178e+05	1.013215e+05	2.881208e+02	1.003308e-01	-4.864590e-03	0.000000e+00	
1.051282e+00	7.911392e-02	1.225060e+00	4.166518e+01	3.645308e+00	2.540179e+05	1.013216e+05	2.881210e+02	1.003311e-01	-4.831819e-03	0.000000e+00	
1.000000e+00	4.746835e-02	1.225060e+00	4.166509e+01	3.645302e+00	2.540178e+05	1.013215e+05	2.881208e+02	1.003309e-01	-4.864965e-03	0.000000e+00	
1.051282e+00	4.746835e-02	1.225060e+00	4.166522e+01	3.645312e+00	2.540179e+05	1.013216e+05	2.881210e+02	1.003312e-01	-4.832147e-03	0.000000e+00	
1.000000e+00	1.582278e-02	1.225060e+00	4.166513e+01	3.645306e+00	2.540178e+05	1.013215e+05	2.881208e+02	1.003309e-01	-4.865326e-03	0.000000e+00	
1.051282e+00	1.582278e-02	1.225060e+00	4.166526e+01	3.645316e+00	2.540179e+05	1.013216e+05	2.881210e+02	1.003312e-01	-4.832459e-03	0.000000e+00	
1.000000e+00	-1.582278e-02	1.225060e+00	4.166517e+01	3.645310e+00	2.540178e+05	1.013215e+05	2.881208e+02	1.003310e-01	-4.865672e-03	0.000000e+00	
1.051282e+00	-1.582278e-02	1.225060e+00	4.166529e+01	3.645321e+00	2.540179e+05	1.013216e+05	2.881210e+02	1.003313e-01	-4.832756e-03	0.000000e+00	
1.000000e+00	-4.746835e-02	1.225060e+00	4.166520e+01	3.645314e+00	2.540178e+05	1.013215e+05	2.881208e+02	1.003311e-01	-4.866000e-03	0.000000e+00	
1.051282e+00	-4.746835e-02	1.225060e+00	4.166533e+01	3.645325e+00	2.540179e+05	1.013216e+05	2.881210e+02	1.003314e-01	-4.833035e-03	0.000000e+00	
1.000000e+00	-7.911392e-02	1.225060e+00	4.166524e+01	3.645318e+00	2.540178e+05	1.013215e+05	2.881208e+02	1.003312e-01	-4.866310e-03	0.000000e+00	
1.051282e+00	-7.911392e-02	1.225060e+00	4.166536e+01	3.645330e+00	2.540179e+05	1.013216e+05	2.881210e+02	1.003315e-01	-4.833295e-03	0.000000e+00	
1.000000e+00	-1.107595e-01	1.225060e+00	4.166527e+01	3.645322e+00	2.540178e+05	1.013215e+05	2.881208e+02	1.003313e-01	-4.866601e-03	0.000000e+00	
1.051282e+00	-1.107595e-01	1.225060e+00	4.166540e+01	3.645335e+00	2.540179e+05	1.013216e+05	2.881210e+02	1.003316e-01	-4.833535e-03	0.000000e+00	
1.000000e+00	-1.424051e-01	1.225060e+00	4.166531e+01	3.645326e+00	2.540178e+05	1.013215e+05	2.881208e+02	1.003314e-01	-4.866872e-03	0.000000e+00	
1.051282e+00	-1.424051e-01	1.225060e+00	4.166543e+01	3.645340e+00	2.540179e+05	1.013216e+05	2.881210e+02	1.003317e-01	-4.833755e-03	0.000000e+00	
1.000000e+00	-1.740506e-01	1.225060e+00	4.166534e+01	3.645331e+00	2.540178e+05	1.013215e+05	2.881208e+02	1.003315e-01	-4.867121e-03	0.000000e+00	
1.051282e+00	-1.740506e-01	1.225060e+00	4.166547e+01	3.645345e+00	2.540179e+05	1.013216e+05	2.881210e+02	1.003318e-01	-4.833953e-03	0.000000e+00	
1.000000e+00	-2.056962e-01	1.225060e+00	4.166538e+01	3.645335e+00	2.540178e+05	1.013215e+05	2.881208e+02	1.003315e-01	-4.867346e-03	0.000000e+00	
1.051282e+00	-2.056962e-01	1.225060e+00	4.166550e+01	3.645350e+00	2.540179e+05	1.013216e+05	2.881210e+02	1.003318e-01	-4.834127e-03	0.000000e+00	
1.000000e+00	-2.373418e-01	1.225060e+00	4.166541e+01	3.645339e+00	2.540178e+05	1.013215e+05	2.881208e+02	1.003316e-01	-4.867548e-03	0.000000e+00	
1.051282e+00	-2.373418e-01	1.225060e+00	4.166554e+01	3.645355e+00	2.540179e+05	1.013216e+05	2.881210e+02	1.003319e-01	-4.834276e-03	0.000000e+00	
1.000000e+00	-2.689873e-01	1.225060e+00	4.166544e+01	3.645344e+00	2.540178e+05	1.013215e+05	2.881208e+02	1.003317e-01	-4.867723e-03	0.000000e+00	
1.051282e+00	-2.689873e-01	1.225060e+00	4.166557e+01	3.645361e+00	2.540179e+05	1.013216e+05	2.881210e+02	1.003320e-01	-4.834399e-03	0.000000e+00	
1.000000e+00	-3.006329e-01	1.225060e+00	4.166547e+01	3.645349e+00	2.540178e+05	1.013215e+05	2.881208e+02	1.003318e-01	-4.867870e-03	0.000000e+00	
1.051282e+00	-3.006329e-01	1.225060e+00	4.166560e+01	3.645366e+00	2.540179e+05	1.013216e+05	2.881210e+02	1.003321e-01	-4.834494e-03	0.000000e+00	
1.000000e+00	-3.322785e-01	1.225060e+00	4.166551e+01	3.645353e+00	2.540178e+05	1.013215e+05	2.881208e+02	1.003319e-01	-4.867989e-03	0.000000e+00	
1.051282e+00	-3.322785e-01	1.225060e+00	4.166563e+01	3.645371e+00	2.540179e+05	1.013216e+05	2.881210e+02	1.003322e-01	-4.834561e-03	0.000000e+00	
1.000000e+00	-3.639241e-01	1.225060e+00	4.166554e+01	3.645358e+00	2.540178e+05	1.013215e+05	2.881208e+02	1.003319e-01	-4.868076e-03	0.000000e+00	
1.051282e+00	-3.639241e-01	1.225060e+00	4.166566e+01	3.645377e+00	2.540179e+05	1.013216e+05	2.881210e+02	1.003322e-01	-4.834596e-03	0.000000e+00	
1.000000e+00	-3.955696e-01	1.225060e+00	4.166557e+01	3.645363e+00	2.540178e+05	1.013215e+05	2.881208e+02	1.003320e-01	-4.868130e-03	0.000000e+00	
1.051282e+00	-3.955696e-01	1.225060e+00	4.166569e+01	3.645383e+00	2.540179e+05	1.013216e+05	2.881210e+02	1.003323e-01	-4.834599e-03	0.000000e+00	
1.000000e+00	-4.272152e-01	1.225060e+00	4.166559e+01	3.645367e+00	2.540178e+05	1.013215e+05	2.881208e+02	1.003321e-01	-4.868150e-03	0.000000e+00	
1.051282e+00	-4.272152e-01	1.225060e+00	4.166572e+01	3.645389e+00	2.540179e+05	1.013216e+05	2.881210e+02	1.003324e-01	-4.834568e-03	0.000000e+00	
1.000000e+00	-4.588608e-01	1.225060e+00	4.166562e+01	3.645372e+00	2.540178e+05	1.013215e+05	2.881208e+02	1.003321e-01	-4.868133e-03	0.000000e+00	
1.051282e+00	-4.588608e-01	1.225060e+00	4.166575e+01	3.645395e+00	2.540179e+05	1.013216e+05	2.881210e+02	1.003324e-01	-4.834501e-03	0.000000e+00	
1.000000e+00	-4.905063e-01	1.225060e+00	4.166565e+01	3.645377e+00	2.540178e+05	1.013215e+05	2.881208e+02	1.003322e-01	-4.868076e-03	0.000000e+00	
1.051282e+00	-4.905063e-01	1.225060e+00	4.166577e+01	3.645401e+00	2.540179e+05	1.013216e+05	2.881210e+02	1.003325e-01	-4.834396e-03	0.000000e+00	
1.000000e+00	-5.221519e-01	1.225060e+00	4.166567e+01	3.645382e+00	2.540178e+05	1.013215e+05	2.881208e+02	1.003322e-01	-4.867976e-03	0.000000e+00	
1.051282e+00	-5.221519e-01	1.225060e+00	4.166580e+01	3.645407e+00	2.540179e+05	1.013216e+05	2.881210e+02	1.003326e-01	-4.834253e-03	0.000000e+00	
1.000000e+00	-5.537975e-01	1.225060e+00	4.166569e+01	3.645388e+00	2.540178e+05	1.013215e+05	2.881208e+02	1.003323e-01	-4.867832e-03	0.000000e+00	
1.051282e+00	-5.537975e-01	1.225060e+00	4.166582e+01	3.645414e+00	2.540179e+05	1.013216e+05	2.881210e+02	1.003326e-01	-4.834069e-03	0.000000e+00	
1.000000e+00	-5.854430e-01	1.225060e+00	4.166571e+01	3.645393e+00	2.540178e+05	1.013215e+05	2.881208e+02	1.003323e-01	-4.867640e-03	0.000000e+00	
1.051282e+00	-5.854430e-01	1.225060e+00	4.166584e+01	3.645420e+00	2.540179e+05	1.013216e+05	2.881210e+02	1.003327e-01	-4.833843e-03	0.000000e+00	
1.000000e+00	-6.170886e-01	1.225060e+00	4.166572e+01	3.645398e+00	2.540178e+05	1.013215e+05	2.881208e+02	1.003324e-01	-4.867398e-03	0.000000e+00	
1.051282e+00	-6.170886e-01	1.225060e+00	4.166585e+01	3.645427e+00	2.540179e+05	1.013216e+05	2.881210e+02	1.003327e-01	-4.833574e-03	0.000000e+00	
1.000000e+00	-6.487342e-01	1.225060e+00	4.166573e+01	3.645404e+00	2.540178e+05	1.013215e+05	2.881208e+02	1.003324e-01	-4.867104e-03	0.000000e+00	
1.051282e+00	-6.487342e-01	1.225060e+00	4.166586e+01	3.645434e+00	2.540179e+05	1.013216e+05	2.881210e+02	1.003327e-01	-4.833261e-03	0.000000e+00	
1.000000e+00	-6.803797e-01	1.225061e+00	4.166574e+01	3.645409e+00	2.540178e+05	1.013215e+05	2.881208e+02	1.003324e-01	-4.866757e-03	0.000000e+00	
1.051282e+00	-6.803797e-01	1.225060e+00	4.166587e+01	3.645441e+00	2.540179e+05	1.013216e+05	2.881210e+02	1.003327e-01	-4.832905e-03	0.000000e+00	
1.000000e+00	-7.120253e-01	1.225061e+00	4.166575e+01	3.645415e+00	2.540178e+05	1.013215e+05	2.881208e+02	1.003324e-01	-4.866355e-03	0.000000e+00	
1.051282e+00	-7.120253e-01	1.225060e+00	4.166587e+01	3.645447e+00	2.540179e+05	1.013216e+05	2.881210e+02	1.003328e-01	-4.832503e-03	0.000000e+00	
1.000000e+00	-7.436709e-01	1.225061e+00	4.166575e+01	3.645420e+00	2.540178e+05	1.013215e+05	2.881208e+02	1.003324e-01	-4.865900e-03	0.000000e+00	
1.051282e+00	-7.436709e-01	1.225060e+00	4.166587e+01	3.645454e+00	2.540179e+05	1.013216e+05	2.881210e+02	1.003327e-01	-4.832057e-03	0.000000e+00	
1.000000e+00	-7.753165e-01	1.225061e+00	4.166574e+01	3.645424e+00	2.540178e+05	1.013215e+05	2.881208e+02	1.003324e-01	-4.865390e-03	0.000000e+00	
1.051282e+00	-7.753165e-01	1.225060e+00	4.166587e+01	3.645459e+00	2.540179e+05	1.013216e+05	2.881210e+02	1.003327e-01	-4.831565e-03	0.000000e+00	
1.000000e+00	-8.069620e-01	1.225061e+00	4.166573e+01	3.645429e+00	2.540178e+05	1.013215e+05	2.881208e+02	1.003324e-01	-4.864829e-03	0.000000e+00	
1.051282e+00	-8.069620e-01	1.225060e+00	4.166585e+01	3.645464e+00	2.540179e+05	1.013216e+05	2.881210e+02	1.003327e-01	-4.831028e-03	0.000000e+00	
1.000000e+00	-8.386076e-01	1.225061e+00	4.166571e+01	3.645432e+00	2.540178e+05	1.013215e+05	2.881208e+02	1.003324e-01	-4.864213e-03	0.000000e+00	
1.051282e+00	-8.386076e-01	1.225060e+00	4.166583e+01	3.645469e+00	2.540179e+05	1.013216e+05	2.881210e+02	1.003327e-01	-4.830449e-03	0.000000e+00	
1.000000e+00	-8.702532e-01	1.225061e+00	4.166569e+01	3.645434e+00	2.540178e+05	1.013216e+05	2.881208e+02	1.003323e-01	-4.863537e-03	0.000000e+00	
1.051282e+00	-8.702532e-01	1.225060e+00	4.166581e+01	3.645472e+00	2.540179e+05	1.013216e+05	2.881210e+02	1.003326e-01	-4.829815e-03	0.000000e+00	
1.000000e+00	-9.018987e-01	1.225060e+00	4.166567e+01	3.645436e+00	2.540178e+05	1.013216e+05	2.881208e+02	1.003323e-01	-4.862802e-03	0.000000e+00	
1.051282e+00	-9.018987e-01	1.225060e+00	4.166578e+01	3.645474e+00	2.540179e+05	1.013216e+05	2.881210e+02	1.003325e-01	-4.829156e-03	0.000000e+00	
1.000000e+00	-9.335443e-01	1.225060e+00	4.166563e+01	3.645436e+00	2.540178e+05	1.013216e+05	2.881209e+02	1.003322e-01	-4.861993e-03	0.000000e+00	
1.051282e+00	-9.335443e-01	1.225060e+00	4.166574e+01	3.645475e+00	2.540179e+05	1.013216e+05	2.881211e+02	1.003325e-01	-4.828414e-03	0.000000e+00	
1.000000e+00	-9.651899e-01	1.225060e+00	4.166558e+01	3.645436e+00	2.540178e+05	1.013216e+05	2.881209e+02	1.003321e-01	-4.861163e-03	0.000000e+00	
1.051282e+00	-9.651899e-01	1.225060e+00	4.166569e+01	3.645475e+00	2.540179e+05	1.013216e+05	2.881211e+02	1.003323e-01	-4.827702e-03	0.000000e+00	
1.000000e+00	-9.968354e-01	1.225060e+00	4.166552e+01	3.645435e+00	2.540178e+05	1.013216e+05	2.881209e+02	1.003319e-01	-4.860228e-03	0.000000e+00	
1.051282e+00	-9.968354e-01	1.225059e+00	4.166564e+01	3.645474e+00	2.540179e+05	1.013216e+05	2.881211e+02	1.003322e-01	-4.826811e-03	0.000000e+00	
1.000000e+00	-1.028481e+00	1.225060e+00	4.166546e+01	3.645433e+00	2.540178e+05	1.013216e+05	2.881210e+02	1.003318e-01	-4.859332e-03	0.000000e+00	
1.051282e+00	-1.028481e+00	1.225059e+00	4.166558e+01	3.645473e+00	2.540179e+05	1.013216e+05	2.881212e+02	1.003321e-01	-4.826142e-03	0.000000e+00	
1.000000e+00	-1.060127e+00	1.225060e+00	4.166540e+01	3.645432e+00	2.540178e+05	1.013216e+05	2.881210e+02	1.003316e-01	-4.858079e-03	0.000000e+00	
1.051282e+00	-1.060127e+00	1.225059e+00	4.166551e+01	3.645470e+00	2.540179e+05	1.013216e+05	2.881212e+02	1.003319e-01	-4.824970e-03	0.000000e+00	
1.000000e+00	-1.091772e+00	1.225060e+00	4.166532e+01	3.645430e+00	2.540178e+05	1.013216e+05	2.881210e+02	1.003315e-01	-4.857081e-03	0.000000e+00	
1.051282e+00	-1.091772e+00	1.225059e+00	4.166544e+01	3.645468e+00	2.540179e+05	1.013216e+05	2.881212e+02	1.003318e-01	-4.824633e-03	0.000000e+00	
1.000000e+00	-1.123418e+00	1.225059e+00	4.166522e+01	3.645428e+00	2.540178e+05	1.013216e+05	2.881211e+02	1.003312e-01	-4.855319e-03	0.000000e+00	
1.051282e+00	-1.123418e+00	1.225059e+00	4.166534e+01	3.645461e+00	2.540179e+05	1.013216e+05	2.881212e+02	1.003315e-01	-4.822711e-03	0.000000e+00	
1.000000e+00	-1.155063e+00	1.225059e+00	4.166511e+01	3.645430e+00	2.540178e+05	1.013216e+05	2.881211e+02	1.003310e-01	-4.855358e-03	0.000000e+00	
1.051282e+00	-1.155063e+00	1.225059e+00	4.166523e+01	3.645463e+00	2.540179e+05	1.013216e+05	2.881212e+02	1.003313e-01	-4.823610e-03	0.000000e+00	
1.000000e+00	-1.186709e+00	1.225059e+00	4.166504e+01	3.645428e+00	2.540178e+05	1.013216e+05	2.881211e+02	1.003308e-01	-4.853123e-03	0.000000e+00	
1.051282e+00	-1.186709e+00	1.225059e+00	4.166516e+01	3.645454e+00	2.540179e+05	1.013216e+05	2.881213e+02	1.003311e-01	-4.819425e-03	0.000000e+00	
1.000000e+00	-1.218354e+00	1.225059e+00	4.166505e+01	3.645435e+00	2.540178e+05	1.013216e+05	2.881211e+02	1.003308e-01	-4.857075e-03	0.000000e+00	
1.051282e+00	-1.218354e+00	1.225059e+00	4.166517e+01	3.645466e+00	2.540179e+05	1.013216e+05	2.881213e+02	1.003311e-01	-4.824400e-03	0.000000e+00	
1.102564e+00	1.218354e+00	1.225059e+00	4.166516e+01	3.645386e+00	2.540179e+05	1.013216e+05	2.881214e+02	1.003311e-01	-4.803264e-03	0.000000e+00	
1.102564e+00	1.250000e+00	1.225059e+00	4.166532e+01	3.645415e+00	2.540180e+05	1.013216e+05	2.881214e+02	1.003315e-01	-4.794284e-03	0.000000e+00	
1.102564e+00	1.186709e+00	1.225059e+00	4.166502e+01	3.645392e+00	2.540179e+05	1.013216e+05	2.881213e+02	1.003307e-01	-4.797362e-03	0.000000e+00	
1.102564e+00	1.155063e+00	1.225059e+00	4.166495e+01	3.645369e+00	2.540179e+05	1.013216e+05	2.881213e+02	1.003306e-01	-4.801212e-03	0.000000e+00	
1.102564e+00	1.123418e+00	1.225059e+00	4.166491e+01	3.645357e+00	2.540179e+05	1.013216e+05	2.881213e+02	1.003305e-01	-4.799209e-03	0.000000e+00	
1.102564e+00	1.091772e+00	1.225059e+00	4.166487e+01	3.645334e+00	2.540179e+05	1.013216e+05	2.881213e+02	1.003303e-01	-4.800722e-03	0.000000e+00	
1.102564e+00	1.060127e+00	1.225059e+00	4.166481e+01	3.645319e+00	2.540179e+05	1.013216e+05	2.881212e+02	1.003302e-01	-4.800219e-03	0.000000e+00	
1.102564e+00	1.028481e+00	1.225059e+00	4.166477e+01	3.645302e+00	2.540179e+05	1.013216e+05	2.881212e+02	1.003301e-01	-4.800905e-03	0.000000e+00	
1.102564e+00	9.968354e-01	1.225060e+00	4.166474e+01	3.645289e+00	2.540179e+05	1.013216e+05	2.881212e+02	1.003300e-01	-4.800921e-03	0.000000e+00	
1.102564e+00	9.651899e-01	1.225060e+00	4.166471e+01	3.645276e+00	2.540179e+05	1.013216e+05	2.881212e+02	1.003299e-01	-4.801334e-03	0.000000e+00	
1.102564e+00	9.335443e-01	1.225060e+00	4.166469e+01	3.645266e+00	2.540179e+05	1.013216e+05	2.881212e+02	1.003299e-01	-4.801541e-03	0.000000e+00	
1.102564e+00	9.018987e-01	1.225060e+00	4.166468e+01	3.645256e+00	2.540179e+05	1.013216e+05	2.881212e+02	1.003299e-01	-4.801880e-03	0.000000e+00	
1.102564e+00	8.702532e-01	1.225060e+00	4.166467e+01	3.645249e+00	2.540179e+05	1.013216e+05	2.881212e+02	1.003298e-01	-4.802165e-03	0.000000e+00	
1.102564e+00	8.386076e-01	1.225060e+00	4.166467e+01	3.645242e+00	2.540179e+05	1.013216e+05	2.881212e+02	1.003298e-01	-4.802497e-03	0.000000e+00	
1.102564e+00	8.069620e-01	1.225060e+00	4.166467e+01	3.645237e+00	2.540179e+05	1.013216e+05	2.881212e+02	1.003298e-01	-4.802822e-03	0.000000e+00	
1.102564e+00	7.753165e-01	1.225060e+00	4.166468e+01	3.645232e+00	2.540179e+05	1.013216e+05	2.881212e+02	1.003299e-01	-4.803168e-03	0.000000e+00	
1.102564e+00	7.436709e-01	1.225060e+00	4.166469e+01	3.645228e+00	2.540179e+05	1.013216e+05	2.881212e+02	1.003299e-01	-4.803520e-03	0.000000e+00	
1.102564e+00	7.120253e-01	1.225060e+00	4.166470e+01	3.645225e+00	2.540179e+05	1.013216e+05	2.881212e+02	1.003299e-01	-4.803884e-03	0.000000e+00	
1.102564e+00	6.803797e-01	1.225060e+00	4.166472e+01	3.645223e+00	2.540179e+05	1.013216e+05	2.881212e+02	1.003300e-01	-4.804256e-03	0.000000e+00	
1.102564e+00	6.487342e-01	1.225060e+00	4.166474e+01	3.645222e+00	2.540179e+05	1.013216e+05	2.881212e+02	1.003300e-01	-4.804636e-03	0.000000e+00	
1.102564e+00	6.170886e-01	1.225060e+00	4.166476e+01	3.645221e+00	2.540179e+05	1.013216e+05	2.881212e+02	1.003301e-01	-4.805023e-03	0.000000e+00	
1.102564e+00	5.854430e-01	1.225060e+00	4.166479e+01	3.645220e+00	2.540179e+05	1.013216e+05	2.881212e+02	1.003301e-01	-4.805416e-03	0.000000e+00	
1.102564e+00	5.537975e-01	1.225060e+00	4.166481e+01	3.645220e+00	2.540179e+05	1.013216e+05	2.881212e+02	1.003302e-01	-4.805813e-03	0.000000e+00	
1.102564e+00	5.221519e-01	1.225060e+00	4.166484e+01	3.645221e+00	2.540179e+05	1.013216e+05	2.881212e+02	1.003303e-01	-4.806213e-03	0.000000e+00	
1.102564e+00	4.905063e-01	1.225060e+00	4.166487e+01	3.645222e+00	2.540179e+05	1.013216e+05	2.881212e+02	1.003303e-01	-4.806615e-03	0.000000e+00	
1.102564e+00	4.588608e-01	1.225060e+00	4.166490e+01	3.645223e+00	2.540179e+05	1.013216e+05	2.881212e+02	1.003304e-01	-4.807017e-03	0.000000e+00	
1.102564e+00	4.272152e-01	1.225060e+00	4.166493e+01	3.645225e+00	2.540179e+05	1.013216e+05	2.881212e+02	1.003305e-01	-4.807419e-03	0.000000e+00	
1.102564e+00	3.955696e-01	1.225059e+00	4.166496e+01	3.645227e+00	2.540179e+05	1.013216e+05	2.881212e+02	1.003306e-01	-4.807820e-03	0.000000e+00	
1.102564e+00	3.639241e-01	1.225059e+00	4.166500e+01	3.645230e+00	2.540179e+05	1.013216e+05	2.881212e+02	1.003306e-01	-4.808217e-03	0.000000e+00	
1.102564e+00	3.322785e-01	1.225059e+00	4.166503e+01	3.645232e+00	2.540179e+05	1.013216e+05	2.881212e+02	1.003307e-01	-4.808609e-03	0.000000e+00	
1.102564e+00	3.006329e-01	1.225059e+00	4.166507e+01	3.645235e+00	2.540179e+05	1.013216e+05	2.881212e+02	1.003308e-01	-4.808996e-03	0.000000e+00	
1.102564e+00	2.689873e-01	1.225059e+00	4.166510e+01	3.645238e+00	2.540179e+05	1.013216e+05	2.881212e+02	1.003309e-01	-4.809377e-03	0.000000e+00	
1.102564e+00	2.373418e-01	1.225059e+00	4.166514e+01	3.645242e+00	2.540179e+05	1.013216e+05	2.881212e+02	1.003310e-01	-4.809749e-03	0.000000e+00	
1.102564e+00	2.056962e-01	1.225059e+00	4.166517e+01	3.645245e+00	2.540179e+05	1.013216e+05	2.881212e+02	1.003311e-01	-4.810113e-03	0.000000e+00	
1.102564e+00	1.740506e-01	1.225059e+00	4.166521e+01	3.645249e+00	2.540179e+05	1.013216e+05	2.881212e+02	1.003311e-01	-4.810467e-03	0.000000e+00	
1.102564e+00	1.424051e-01	1.225059e+00	4.166524e+01	3.645253e+00	2.540179e+05	1.013216e+05	2.881212e+02	1.003312e-01	-4.810809e-03	0.000000e+00	
1.102564e+00	1.107595e-01	1.225059e+00	4.166528e+01	3.645257e+00	2.540179e+05	1.013216e+05	2.881212e+02	1.003313e-01	-4.811139e-03	0.000000e+00	
1.102564e+00	7.911392e-02	1.225059e+00	4.166532e+01	3.645262e+00	2.540179e+05	1.013216e+05	2.881212e+02	1.003314e-01	-4.811457e-03	0.000000e+00	
1.102564e+00	4.746835e-02	1.225059e+00	4.166535e+01	3.645266e+00	2.540179e+05	1.013216e+05	2.881212e+02	1.003315e-01	-4.811759e-03	0.000000e+00	
1.102564e+00	1.582278e-02	1.225059e+00	4.166539e+01	3.645271e+00	2.540179e+05	1.013216e+05	2.881212e+02	1.003316e-01	-4.812047e-03	0.000000e+00	
1.102564e+00	-1.582278e-02	1.225059e+00	4.166542e+01	3.645276e+00	2.540179e+05	1.013216e+05	2.881212e+02	1.003317e-01	-4.812318e-03	0.000000e+00	
1.102564e+00	-4.746835e-02	1.225059e+00	4.166546e+01	3.645281e+00	2.540179e+05	1.013216e+05	2.881212e+02	1.003318e-01	-4.812572e-03	0.000000e+00	
1.102564e+00	-7.911392e-02	1.225059e+00	4.166550e+01	3.645286e+00	2.540179e+05	1.013216e+05	2.881212e+02	1.003318e-01	-4.812807e-03	0.000000e+00	
1.102564e+00	-1.107595e-01	1.225059e+00	4.166553e+01	3.645291e+00	2.540179e+05	1.013216e+05	2.881212e+02	1.003319e-01	-4.813022e-03	0.000000e+00	
1.102564e+00	-1.424051e-01	1.225059e+00	4.166557e+01	3.645296e+00	2.540179e+05	1.013216e+05	2.881212e+02	1.003320e-01	-4.813217e-03	0.000000e+00	
1.102564e+00	-1.740506e-01	1.225059e+00	4.166560e+01	3.645302e+00	2.540179e+05	1.013216e+05	2.881212e+02	1.003321e-01	-4.813389e-03	0.000000e+00	