TITLE = "Visualization of the volumetric solution"
VARIABLES = "x","y","Density","Momentum_x","Momentum_y","Energy","Pressure","Temperature","Mach","C<sub>p</sub>","Roe_Dissipation"
ZONE NODES= 3200, ELEMENTS= 3081, DATAPACKING=POINT, ZONETYPE=FEQUADRILATERAL
-2.000000e+00	1.250000e+00	1.225095e+00	4.166821e+01	3.775170e-09	2.540226e+05	1.013256e+05	2.881243e+02	9.995313e-02	8.328434e-04	0.000000e+00	
-2.000000e+00	1.218354e+00	1.225095e+00	4.166829e+01	-3.873609e-05	2.540226e+05	1.013256e+05	2.881243e+02	9.995334e-02	8.268733e-04	0.000000e+00	
-1.948718e+00	1.218354e+00	1.225094e+00	4.166831e+01	-2.923006e-05	2.540224e+05	1.013255e+05	2.881242e+02	9.995343e-02	7.327932e-04	0.000000e+00	
-1.948718e+00	1.250000e+00	1.225094e+00	4.166818e+01	5.548307e-07	2.540224e+05	1.013255e+05	2.881242e+02	9.995312e-02	7.361084e-04	0.000000e+00	
-2.000000e+00	1.186709e+00	1.225095e+00	4.166835e+01	-3.320479e-05	2.540226e+05	1.013256e+05	2.881243e+02	9.995349e-02	8.249679e-04	0.000000e+00	
-1.948718e+00	1.186709e+00	1.225094e+00	4.166840e+01	-2.150021e-05	2.540224e+05	1.013255e+05	2.881242e+02	9.995366e-02	7.334724e-04	0.000000e+00	
-2.000000e+00	1.155063e+00	1.225095e+00	4.166838e+01	-2.005605e-05	2.540226e+05	1.013256e+05	2.881243e+02	9.995354e-02	8.236720e-04	0.000000e+00	
-1.948718e+00	1.155063e+00	1.225094e+00	4.166843e+01	-1.201398e-05	2.540224e+05	1.013255e+05	2.881242e+02	9.995372e-02	7.323327e-04	0.000000e+00	
-2.000000e+00	1.123418e+00	1.225095e+00	4.166838e+01	-1.072240e-05	2.540226e+05	1.013256e+05	2.881243e+02	9.995356e-02	8.232297e-04	0.000000e+00	
-1.948718e+00	1.123418e+00	1.225094e+00	4.166843e+01	-4.414831e-06	2.540224e+05	1.013255e+05	2.881242e+02	9.995372e-02	7.321902e-04	0.000000e+00	
-2.000000e+00	1.091772e+00	1.225095e+00	4.166838e+01	-6.549714e-06	2.540226e+05	1.013256e+05	2.881243e+02	9.995356e-02	8.230242e-04	0.000000e+00	
-1.948718e+00	1.091772e+00	1.225094e+00	4.166842e+01	-2.517425e-06	2.540224e+05	1.013255e+05	2.881242e+02	9.995371e-02	7.318075e-04	0.000000e+00	
-2.000000e+00	1.060127e+00	1.225095e+00	4.166838e+01	-4.396075e-06	2.540226e+05	1.013256e+05	2.881243e+02	9.995355e-02	8.229901e-04	0.000000e+00	
-1.948718e+00	1.060127e+00	1.225094e+00	4.166842e+01	-1.692365e-06	2.540224e+05	1.013255e+05	2.881242e+02	9.995370e-02	7.317481e-04	0.000000e+00	
-2.000000e+00	1.028481e+00	1.225095e+00	4.166838e+01	-2.944633e-06	2.540226e+05	1.013256e+05	2.881243e+02	9.995355e-02	8.229912e-04	0.000000e+00	
-1.948718e+00	1.028481e+00	1.225094e+00	4.166842e+01	-1.181017e-06	2.540224e+05	1.013255e+05	2.881242e+02	9.995369e-02	7.316513e-04	0.000000e+00	
-2.000000e+00	9.968354e-01	1.225095e+00	4.166838e+01	-1.804178e-06	2.540226e+05	1.013256e+05	2.881243e+02	9.995354e-02	8.230388e-04	0.000000e+00	
-1.948718e+00	9.968354e-01	1.225094e+00	4.166841e+01	-3.608302e-07	2.540224e+05	1.013255e+05	2.881242e+02	9.995369e-02	7.316655e-04	0.000000e+00	
-2.000000e+00	9.651899e-01	1.225095e+00	4.166838e+01	-1.063226e-06	2.540226e+05	1.013256e+05	2.881243e+02	9.995354e-02	8.230858e-04	0.000000e+00	
-1.948718e+00	9.651899e-01	1.225094e+00	4.166841e+01	2.356827e-07	2.540224e+05	1.013255e+05	2.881242e+02	9.995368e-02	7.316641e-04	0.000000e+00	
-2.000000e+00	9.335443e-01	1.225095e+00	4.166837e+01	-6.126076e-07	2.540226e+05	1.013256e+05	2.881243e+02	9.995354e-02	8.231374e-04	0.000000e+00	
-1.948718e+00	9.335443e-01	1.225094e+00	4.166841e+01	6.765070e-07	2.540224e+05	1.013255e+05	2.881242e+02	9.995368e-02	7.317029e-04	0.000000e+00	
-2.000000e+00	9.018987e-01	1.225095e+00	4.166837e+01	-3.600958e-07	2.540226e+05	1.013256e+05	2.881243e+02	9.995354e-02	8.231794e-04	0.000000e+00	
-1.948718e+00	9.018987e-01	1.225094e+00	4.166841e+01	8.964516e-07	2.540224e+05	1.013255e+05	2.881242e+02	9.995368e-02	7.317336e-04	0.000000e+00	
-2.000000e+00	8.702532e-01	1.225095e+00	4.166837e+01	-2.039847e-07	2.540226e+05	1.013256e+05	2.881243e+02	9.995353e-02	8.232183e-04	0.000000e+00	
-1.948718e+00	8.702532e-01	1.225094e+00	4.166841e+01	1.026915e-06	2.540224e+05	1.013255e+05	2.881242e+02	9.995368e-02	7.317797e-04	0.000000e+00	
-2.000000e+00	8.386076e-01	1.225095e+00	4.166837e+01	-1.094549e-07	2.540226e+05	1.013256e+05	2.881243e+02	9.995353e-02	8.232503e-04	0.000000e+00	
-1.948718e+00	8.386076e-01	1.225094e+00	4.166841e+01	1.066919e-06	2.540224e+05	1.013255e+05	2.881242e+02	9.995367e-02	7.318206e-04	0.000000e+00	
-2.000000e+00	8.069620e-01	1.225095e+00	4.166837e+01	-4.663039e-08	2.540226e+05	1.013256e+05	2.881243e+02	9.995353e-02	8.232791e-04	0.000000e+00	
-1.948718e+00	8.069620e-01	1.225094e+00	4.166841e+01	1.070084e-06	2.540224e+05	1.013255e+05	2.881242e+02	9.995367e-02	7.318668e-04	0.000000e+00	
-2.000000e+00	7.753165e-01	1.225095e+00	4.166837e+01	-5.455000e-09	2.540226e+05	1.013256e+05	2.881243e+02	9.995353e-02	8.233034e-04	0.000000e+00	
-1.948718e+00	7.753165e-01	1.225094e+00	4.166841e+01	1.036468e-06	2.540224e+05	1.013255e+05	2.881242e+02	9.995367e-02	7.319094e-04	0.000000e+00	
-2.000000e+00	7.436709e-01	1.225095e+00	4.166837e+01	2.552913e-08	2.540226e+05	1.013256e+05	2.881243e+02	9.995353e-02	8.233251e-04	0.000000e+00	
-1.948718e+00	7.436709e-01	1.225094e+00	4.166841e+01	9.916103e-07	2.540224e+05	1.013255e+05	2.881242e+02	9.995367e-02	7.319530e-04	0.000000e+00	
-2.000000e+00	7.120253e-01	1.225095e+00	4.166837e+01	4.849704e-08	2.540226e+05	1.013256e+05	2.881243e+02	9.995353e-02	8.233439e-04	0.000000e+00	
-1.948718e+00	7.120253e-01	1.225094e+00	4.166841e+01	9.350866e-07	2.540224e+05	1.013255e+05	2.881242e+02	9.995367e-02	7.319935e-04	0.000000e+00	
-2.000000e+00	6.803797e-01	1.225095e+00	4.166837e+01	6.611583e-08	2.540226e+05	1.013256e+05	2.881243e+02	9.995353e-02	8.233608e-04	0.000000e+00	
-1.948718e+00	6.803797e-01	1.225094e+00	4.166841e+01	8.755537e-07	2.540224e+05	1.013255e+05	2.881242e+02	9.995367e-02	7.320329e-04	0.000000e+00	
-2.000000e+00	6.487342e-01	1.225095e+00	4.166837e+01	7.818159e-08	2.540226e+05	1.013256e+05	2.881243e+02	9.995353e-02	8.233755e-04	0.000000e+00	
-1.948718e+00	6.487342e-01	1.225094e+00	4.166841e+01	8.105669e-07	2.540224e+05	1.013255e+05	2.881242e+02	9.995367e-02	7.320695e-04	0.000000e+00	
-2.000000e+00	6.170886e-01	1.225095e+00	4.166837e+01	8.592544e-08	2.540226e+05	1.013256e+05	2.881243e+02	9.995353e-02	8.233884e-04	0.000000e+00	
-1.948718e+00	6.170886e-01	1.225094e+00	4.166841e+01	7.430681e-07	2.540224e+05	1.013255e+05	2.881242e+02	9.995367e-02	7.321040e-04	0.000000e+00	
-2.000000e+00	5.854430e-01	1.225095e+00	4.166837e+01	8.979354e-08	2.540226e+05	1.013256e+05	2.881243e+02	9.995353e-02	8.233994e-04	0.000000e+00	
-1.948718e+00	5.854430e-01	1.225094e+00	4.166841e+01	6.720429e-07	2.540224e+05	1.013255e+05	2.881242e+02	9.995367e-02	7.321357e-04	0.000000e+00	
-2.000000e+00	5.537975e-01	1.225095e+00	4.166837e+01	9.080649e-08	2.540226e+05	1.013256e+05	2.881243e+02	9.995353e-02	8.234086e-04	0.000000e+00	
-1.948718e+00	5.537975e-01	1.225094e+00	4.166841e+01	5.991475e-07	2.540224e+05	1.013255e+05	2.881242e+02	9.995367e-02	7.321649e-04	0.000000e+00	
-2.000000e+00	5.221519e-01	1.225095e+00	4.166837e+01	8.944361e-08	2.540226e+05	1.013256e+05	2.881243e+02	9.995353e-02	8.234159e-04	0.000000e+00	
-1.948718e+00	5.221519e-01	1.225094e+00	4.166841e+01	5.242460e-07	2.540224e+05	1.013255e+05	2.881242e+02	9.995367e-02	7.321912e-04	0.000000e+00	
-2.000000e+00	4.905063e-01	1.225095e+00	4.166837e+01	8.631098e-08	2.540226e+05	1.013256e+05	2.881243e+02	9.995353e-02	8.234215e-04	0.000000e+00	
-1.948718e+00	4.905063e-01	1.225094e+00	4.166841e+01	4.483076e-07	2.540224e+05	1.013255e+05	2.881242e+02	9.995367e-02	7.322148e-04	0.000000e+00	
-2.000000e+00	4.588608e-01	1.225095e+00	4.166837e+01	8.172415e-08	2.540226e+05	1.013256e+05	2.881243e+02	9.995353e-02	8.234251e-04	0.000000e+00	
-1.948718e+00	4.588608e-01	1.225094e+00	4.166841e+01	3.714851e-07	2.540224e+05	1.013255e+05	2.881242e+02	9.995367e-02	7.322355e-04	0.000000e+00	
-2.000000e+00	4.272152e-01	1.225095e+00	4.166837e+01	7.603324e-08	2.540226e+05	1.013256e+05	2.881243e+02	9.995353e-02	8.234269e-04	0.000000e+00	
-1.948718e+00	4.272152e-01	1.225094e+00	4.166841e+01	2.944180e-07	2.540224e+05	1.013255e+05	2.881242e+02	9.995367e-02	7.322533e-04	0.000000e+00	
-2.000000e+00	3.955696e-01	1.225095e+00	4.166837e+01	6.944543e-08	2.540226e+05	1.013256e+05	2.881243e+02	9.995353e-02	8.234269e-04	0.000000e+00	
-1.948718e+00	3.955696e-01	1.225094e+00	4.166841e+01	2.173883e-07	2.540224e+05	1.013255e+05	2.881242e+02	9.995367e-02	7.322683e-04	0.000000e+00	
-2.000000e+00	3.639241e-01	1.225095e+00	4.166837e+01	6.216816e-08	2.540226e+05	1.013256e+05	2.881243e+02	9.995353e-02	8.234250e-04	0.000000e+00	
-1.948718e+00	3.639241e-01	1.225094e+00	4.166841e+01	1.408862e-07	2.540224e+05	1.013255e+05	2.881242e+02	9.995367e-02	7.322804e-04	0.000000e+00	
-2.000000e+00	3.322785e-01	1.225095e+00	4.166837e+01	5.433539e-08	2.540226e+05	1.013256e+05	2.881243e+02	9.995353e-02	8.234213e-04	0.000000e+00	
-1.948718e+00	3.322785e-01	1.225094e+00	4.166841e+01	6.523843e-08	2.540224e+05	1.013255e+05	2.881242e+02	9.995367e-02	7.322896e-04	0.000000e+00	
-2.000000e+00	3.006329e-01	1.225095e+00	4.166837e+01	4.607287e-08	2.540226e+05	1.013256e+05	2.881243e+02	9.995353e-02	8.234158e-04	0.000000e+00	
-1.948718e+00	3.006329e-01	1.225094e+00	4.166841e+01	-9.147139e-09	2.540224e+05	1.013255e+05	2.881242e+02	9.995367e-02	7.322960e-04	0.000000e+00	
-2.000000e+00	2.689873e-01	1.225095e+00	4.166837e+01	3.746699e-08	2.540226e+05	1.013256e+05	2.881243e+02	9.995353e-02	8.234086e-04	0.000000e+00	
-1.948718e+00	2.689873e-01	1.225094e+00	4.166841e+01	-8.194327e-08	2.540224e+05	1.013255e+05	2.881242e+02	9.995367e-02	7.322997e-04	0.000000e+00	
-2.000000e+00	2.373418e-01	1.225095e+00	4.166837e+01	2.859559e-08	2.540226e+05	1.013256e+05	2.881243e+02	9.995353e-02	8.233996e-04	0.000000e+00	
-1.948718e+00	2.373418e-01	1.225094e+00	4.166841e+01	-1.527993e-07	2.540224e+05	1.013255e+05	2.881242e+02	9.995367e-02	7.323006e-04	0.000000e+00	
-2.000000e+00	2.056962e-01	1.225095e+00	4.166837e+01	1.951468e-08	2.540226e+05	1.013256e+05	2.881243e+02	9.995353e-02	8.233891e-04	0.000000e+00	
-1.948718e+00	2.056962e-01	1.225094e+00	4.166841e+01	-2.214125e-07	2.540224e+05	1.013255e+05	2.881242e+02	9.995367e-02	7.322988e-04	0.000000e+00	
-2.000000e+00	1.740506e-01	1.225095e+00	4.166837e+01	1.027299e-08	2.540226e+05	1.013256e+05	2.881243e+02	9.995353e-02	8.233771e-04	0.000000e+00	
-1.948718e+00	1.740506e-01	1.225094e+00	4.166841e+01	-2.874833e-07	2.540224e+05	1.013255e+05	2.881242e+02	9.995367e-02	7.322944e-04	0.000000e+00	
-2.000000e+00	1.424051e-01	1.225095e+00	4.166837e+01	9.072968e-10	2.540226e+05	1.013256e+05	2.881243e+02	9.995353e-02	8.233635e-04	0.000000e+00	
-1.948718e+00	1.424051e-01	1.225094e+00	4.166841e+01	-3.507469e-07	2.540224e+05	1.013255e+05	2.881242e+02	9.995367e-02	7.322875e-04	0.000000e+00	
-2.000000e+00	1.107595e-01	1.225095e+00	4.166837e+01	-8.550167e-09	2.540226e+05	1.013256e+05	2.881243e+02	9.995353e-02	8.233487e-04	0.000000e+00	
-1.948718e+00	1.107595e-01	1.225094e+00	4.166841e+01	-4.109531e-07	2.540224e+05	1.013255e+05	2.881242e+02	9.995368e-02	7.322782e-04	0.000000e+00	
-2.000000e+00	7.911392e-02	1.225095e+00	4.166837e+01	-1.807340e-08	2.540226e+05	1.013256e+05	2.881243e+02	9.995354e-02	8.233325e-04	0.000000e+00	
-1.948718e+00	7.911392e-02	1.225094e+00	4.166841e+01	-4.678808e-07	2.540224e+05	1.013255e+05	2.881242e+02	9.995368e-02	7.322664e-04	0.000000e+00	
-2.000000e+00	4.746835e-02	1.225095e+00	4.166837e+01	-2.763847e-08	2.540226e+05	1.013256e+05	2.881243e+02	9.995354e-02	8.233152e-04	0.000000e+00	
-1.948718e+00	4.746835e-02	1.225094e+00	4.166841e+01	-5.213282e-07	2.540224e+05	1.013255e+05	2.881242e+02	9.995368e-02	7.322525e-04	0.000000e+00	
-2.000000e+00	1.582278e-02	1.225095e+00	4.166837e+01	-3.722454e-08	2.540226e+05	1.013256e+05	2.881243e+02	9.995354e-02	8.232968e-04	0.000000e+00	
-1.948718e+00	1.582278e-02	1.225094e+00	4.166841e+01	-5.711192e-07	2.540224e+05	1.013255e+05	2.881242e+02	9.995368e-02	7.322364e-04	0.000000e+00	
-2.000000e+00	-1.582278e-02	1.225095e+00	4.166837e+01	-4.681111e-08	2.540226e+05	1.013256e+05	2.881243e+02	9.995354e-02	8.232776e-04	0.000000e+00	
-1.948718e+00	-1.582278e-02	1.225094e+00	4.166841e+01	-6.170992e-07	2.540224e+05	1.013255e+05	2.881242e+02	9.995368e-02	7.322182e-04	0.000000e+00	
-2.000000e+00	-4.746835e-02	1.225095e+00	4.166838e+01	-5.637783e-08	2.540226e+05	1.013256e+05	2.881243e+02	9.995354e-02	8.232575e-04	0.000000e+00	
-1.948718e+00	-4.746835e-02	1.225094e+00	4.166841e+01	-6.591374e-07	2.540224e+05	1.013255e+05	2.881242e+02	9.995368e-02	7.321982e-04	0.000000e+00	
-2.000000e+00	-7.911392e-02	1.225095e+00	4.166838e+01	-6.590312e-08	2.540226e+05	1.013256e+05	2.881243e+02	9.995354e-02	8.232367e-04	0.000000e+00	
-1.948718e+00	-7.911392e-02	1.225094e+00	4.166841e+01	-6.971240e-07	2.540224e+05	1.013255e+05	2.881242e+02	9.995368e-02	7.321763e-04	0.000000e+00	
-2.000000e+00	-1.107595e-01	1.225095e+00	4.166838e+01	-7.536437e-08	2.540226e+05	1.013256e+05	2.881243e+02	9.995354e-02	8.232153e-04	0.000000e+00	
-1.948718e+00	-1.107595e-01	1.225094e+00	4.166841e+01	-7.309732e-07	2.540224e+05	1.013255e+05	2.881242e+02	9.995368e-02	7.321528e-04	0.000000e+00	
-2.000000e+00	-1.424051e-01	1.225095e+00	4.166838e+01	-8.473533e-08	2.540226e+05	1.013256e+05	2.881243e+02	9.995354e-02	8.231935e-04	0.000000e+00	
-1.948718e+00	-1.424051e-01	1.225094e+00	4.166841e+01	-7.606184e-07	2.540224e+05	1.013255e+05	2.881242e+02	9.995368e-02	7.321277e-04	0.000000e+00	
-2.000000e+00	-1.740506e-01	1.225095e+00	4.166838e+01	-9.398637e-08	2.540226e+05	1.013256e+05	2.881243e+02	9.995354e-02	8.231714e-04	0.000000e+00	
-1.948718e+00	-1.740506e-01	1.225094e+00	4.166841e+01	-7.860172e-07	2.540224e+05	1.013255e+05	2.881242e+02	9.995368e-02	7.321011e-04	0.000000e+00	
-2.000000e+00	-2.056962e-01	1.225095e+00	4.166838e+01	-1.030818e-07	2.540226e+05	1.013256e+05	2.881243e+02	9.995354e-02	8.231492e-04	0.000000e+00	
-1.948718e+00	-2.056962e-01	1.225094e+00	4.166841e+01	-8.071432e-07	2.540224e+05	1.013255e+05	2.881242e+02	9.995368e-02	7.320733e-04	0.000000e+00	
-2.000000e+00	-2.373418e-01	1.225095e+00	4.166838e+01	-1.119806e-07	2.540226e+05	1.013256e+05	2.881243e+02	9.995355e-02	8.231269e-04	0.000000e+00	
-1.948718e+00	-2.373418e-01	1.225094e+00	4.166841e+01	-8.239985e-07	2.540224e+05	1.013255e+05	2.881242e+02	9.995369e-02	7.320442e-04	0.000000e+00	
-2.000000e+00	-2.689873e-01	1.225095e+00	4.166838e+01	-1.206294e-07	2.540226e+05	1.013256e+05	2.881243e+02	9.995355e-02	8.231047e-04	0.000000e+00	
-1.948718e+00	-2.689873e-01	1.225094e+00	4.166841e+01	-8.365927e-07	2.540224e+05	1.013255e+05	2.881242e+02	9.995369e-02	7.320142e-04	0.000000e+00	
-2.000000e+00	-3.006329e-01	1.225095e+00	4.166838e+01	-1.289684e-07	2.540226e+05	1.013256e+05	2.881243e+02	9.995355e-02	8.230827e-04	0.000000e+00	
-1.948718e+00	-3.006329e-01	1.225094e+00	4.166841e+01	-8.449748e-07	2.540224e+05	1.013255e+05	2.881242e+02	9.995369e-02	7.319831e-04	0.000000e+00	
-2.000000e+00	-3.322785e-01	1.225095e+00	4.166838e+01	-1.369156e-07	2.540226e+05	1.013256e+05	2.881243e+02	9.995355e-02	8.230611e-04	0.000000e+00	
-1.948718e+00	-3.322785e-01	1.225094e+00	4.166841e+01	-8.491855e-07	2.540224e+05	1.013255e+05	2.881242e+02	9.995369e-02	7.319513e-04	0.000000e+00	
-2.000000e+00	-3.639241e-01	1.225095e+00	4.166838e+01	-1.443811e-07	2.540226e+05	1.013256e+05	2.881243e+02	9.995355e-02	8.230399e-04	0.000000e+00	
-1.948718e+00	-3.639241e-01	1.225094e+00	4.166841e+01	-8.493306e-07	2.540224e+05	1.013255e+05	2.881242e+02	9.995369e-02	7.319188e-04	0.000000e+00	
-2.000000e+00	-3.955696e-01	1.225095e+00	4.166838e+01	-1.512361e-07	2.540226e+05	1.013256e+05	2.881243e+02	9.995355e-02	8.230193e-04	0.000000e+00	
-1.948718e+00	-3.955696e-01	1.225094e+00	4.166841e+01	-8.454703e-07	2.540224e+05	1.013255e+05	2.881242e+02	9.995369e-02	7.318857e-04	0.000000e+00	
-2.000000e+00	-4.272152e-01	1.225095e+00	4.166838e+01	-1.573449e-07	2.540226e+05	1.013256e+05	2.881243e+02	9.995355e-02	8.229995e-04	0.000000e+00	
-1.948718e+00	-4.272152e-01	1.225094e+00	4.166842e+01	-8.377889e-07	2.540224e+05	1.013255e+05	2.881242e+02	9.995369e-02	7.318522e-04	0.000000e+00	
-2.000000e+00	-4.588608e-01	1.225095e+00	4.166838e+01	-1.624965e-07	2.540226e+05	1.013256e+05	2.881243e+02	9.995355e-02	8.229805e-04	0.000000e+00	
-1.948718e+00	-4.588608e-01	1.225094e+00	4.166842e+01	-8.263336e-07	2.540224e+05	1.013255e+05	2.881242e+02	9.995369e-02	7.318183e-04	0.000000e+00	
-2.000000e+00	-4.905063e-01	1.225095e+00	4.166838e+01	-1.664851e-07	2.540226e+05	1.013256e+05	2.881243e+02	9.995355e-02	8.229624e-04	0.000000e+00	
-1.948718e+00	-4.905063e-01	1.225094e+00	4.166842e+01	-8.114105e-07	2.540224e+05	1.013255e+05	2.881242e+02	9.995369e-02	7.317841e-04	0.000000e+00	
-2.000000e+00	-5.221519e-01	1.225095e+00	4.166838e+01	-1.689555e-07	2.540226e+05	1.013256e+05	2.881243e+02	9.995355e-02	8.229453e-04	0.000000e+00	
-1.948718e+00	-5.221519e-01	1.225094e+00	4.166842e+01	-7.929776e-07	2.540224e+05	1.013255e+05	2.881242e+02	9.995369e-02	7.317498e-04	0.000000e+00	
-2.000000e+00	-5.537975e-01	1.225095e+00	4.166838e+01	-1.695954e-07	2.540226e+05	1.013256e+05	2.881243e+02	9.995355e-02	8.229293e-04	0.000000e+00	
-1.948718e+00	-5.537975e-01	1.225094e+00	4.166842e+01	-7.715518e-07	2.540224e+05	1.013255e+05	2.881242e+02	9.995369e-02	7.317155e-04	0.000000e+00	
-2.000000e+00	-5.854430e-01	1.225095e+00	4.166838e+01	-1.677866e-07	2.540226e+05	1.013256e+05	2.881243e+02	9.995355e-02	8.229145e-04	0.000000e+00	
-1.948718e+00	-5.854430e-01	1.225094e+00	4.166842e+01	-7.468075e-07	2.540224e+05	1.013255e+05	2.881242e+02	9.995369e-02	7.316810e-04	0.000000e+00	
-2.000000e+00	-6.170886e-01	1.225095e+00	4.166838e+01	-1.630559e-07	2.540226e+05	1.013256e+05	2.881243e+02	9.995355e-02	8.229009e-04	0.000000e+00	
-1.948718e+00	-6.170886e-01	1.225094e+00	4.166842e+01	-7.196531e-07	2.540224e+05	1.013255e+05	2.881242e+02	9.995369e-02	7.316469e-04	0.000000e+00	
-2.000000e+00	-6.487342e-01	1.225095e+00	4.166838e+01	-1.543502e-07	2.540226e+05	1.013256e+05	2.881243e+02	9.995355e-02	8.228883e-04	0.000000e+00	
-1.948718e+00	-6.487342e-01	1.225094e+00	4.166842e+01	-6.890963e-07	2.540224e+05	1.013255e+05	2.881242e+02	9.995369e-02	7.316126e-04	0.000000e+00	
-2.000000e+00	-6.803797e-01	1.225095e+00	4.166838e+01	-1.412347e-07	2.540226e+05	1.013256e+05	2.881243e+02	9.995355e-02	8.228771e-04	0.000000e+00	
-1.948718e+00	-6.803797e-01	1.225094e+00	4.166842e+01	-6.570810e-07	2.540224e+05	1.013255e+05	2.881242e+02	9.995369e-02	7.315791e-04	0.000000e+00	
-2.000000e+00	-7.120253e-01	1.225095e+00	4.166838e+01	-1.223995e-07	2.540226e+05	1.013256e+05	2.881243e+02	9.995355e-02	8.228666e-04	0.000000e+00	
-1.948718e+00	-7.120253e-01	1.225094e+00	4.166842e+01	-6.212972e-07	2.540224e+05	1.013255e+05	2.881242e+02	9.995369e-02	7.315453e-04	0.000000e+00	
-2.000000e+00	-7.436709e-01	1.225095e+00	4.166838e+01	-9.807825e-08	2.540226e+05	1.013256e+05	2.881243e+02	9.995355e-02	8.228570e-04	0.000000e+00	
-1.948718e+00	-7.436709e-01	1.225094e+00	4.166842e+01	-5.854004e-07	2.540224e+05	1.013255e+05	2.881242e+02	9.995369e-02	7.315130e-04	0.000000e+00	
-2.000000e+00	-7.753165e-01	1.225095e+00	4.166838e+01	-6.544555e-08	2.540226e+05	1.013256e+05	2.881243e+02	9.995355e-02	8.228474e-04	0.000000e+00	
-1.948718e+00	-7.753165e-01	1.225094e+00	4.166842e+01	-5.412362e-07	2.540224e+05	1.013255e+05	2.881242e+02	9.995369e-02	7.314800e-04	0.000000e+00	
-2.000000e+00	-8.069620e-01	1.225095e+00	4.166838e+01	-2.244706e-08	2.540226e+05	1.013256e+05	2.881243e+02	9.995355e-02	8.228379e-04	0.000000e+00	
-1.948718e+00	-8.069620e-01	1.225094e+00	4.166842e+01	-4.910071e-07	2.540224e+05	1.013255e+05	2.881242e+02	9.995370e-02	7.314503e-04	0.000000e+00	
-2.000000e+00	-8.386076e-01	1.225095e+00	4.166838e+01	4.262329e-08	2.540226e+05	1.013256e+05	2.881243e+02	9.995355e-02	8.228265e-04	0.000000e+00	
-1.948718e+00	-8.386076e-01	1.225094e+00	4.166842e+01	-4.093512e-07	2.540224e+05	1.013255e+05	2.881242e+02	9.995370e-02	7.314188e-04	0.000000e+00	
-2.000000e+00	-8.702532e-01	1.225095e+00	4.166838e+01	1.394153e-07	2.540226e+05	1.013256e+05	2.881243e+02	9.995355e-02	8.228143e-04	0.000000e+00	
-1.948718e+00	-8.702532e-01	1.225094e+00	4.166842e+01	-2.990949e-07	2.540224e+05	1.013255e+05	2.881242e+02	9.995370e-02	7.313949e-04	0.000000e+00	
-2.000000e+00	-9.018987e-01	1.225095e+00	4.166838e+01	2.981739e-07	2.540226e+05	1.013256e+05	2.881243e+02	9.995355e-02	8.227972e-04	0.000000e+00	
-1.948718e+00	-9.018987e-01	1.225094e+00	4.166842e+01	-1.058726e-07	2.540224e+05	1.013255e+05	2.881242e+02	9.995370e-02	7.313671e-04	0.000000e+00	
-2.000000e+00	-9.335443e-01	1.225095e+00	4.166838e+01	5.526677e-07	2.540226e+05	1.013256e+05	2.881243e+02	9.995355e-02	8.227792e-04	0.000000e+00	
-1.948718e+00	-9.335443e-01	1.225094e+00	4.166842e+01	1.645530e-07	2.540224e+05	1.013255e+05	2.881242e+02	9.995370e-02	7.313570e-04	0.000000e+00	
-2.000000e+00	-9.651899e-01	1.225095e+00	4.166838e+01	1.005095e-06	2.540226e+05	1.013256e+05	2.881243e+02	9.995356e-02	8.227529e-04	0.000000e+00	
-1.948718e+00	-9.651899e-01	1.225094e+00	4.166842e+01	6.467018e-07	2.540224e+05	1.013255e+05	2.881242e+02	9.995370e-02	7.313388e-04	0.000000e+00	
-2.000000e+00	-9.968354e-01	1.225095e+00	4.166838e+01	1.745079e-06	2.540226e+05	1.013256e+05	2.881243e+02	9.995356e-02	8.227329e-04	0.000000e+00	
-1.948718e+00	-9.968354e-01	1.225094e+00	4.166842e+01	1.266860e-06	2.540224e+05	1.013255e+05	2.881242e+02	9.995370e-02	7.313638e-04	0.000000e+00	
-2.000000e+00	-1.028481e+00	1.225095e+00	4.166838e+01	2.882906e-06	2.540226e+05	1.013256e+05	2.881243e+02	9.995356e-02	8.227124e-04	0.000000e+00	
-1.948718e+00	-1.028481e+00	1.225094e+00	4.166842e+01	2.101895e-06	2.540224e+05	1.013255e+05	2.881242e+02	9.995371e-02	7.313716e-04	0.000000e+00	
-2.000000e+00	-1.060127e+00	1.225095e+00	4.166839e+01	4.326447e-06	2.540226e+05	1.013256e+05	2.881243e+02	9.995357e-02	8.227394e-04	0.000000e+00	
-1.948718e+00	-1.060127e+00	1.225094e+00	4.166842e+01	2.603614e-06	2.540224e+05	1.013255e+05	2.881242e+02	9.995371e-02	7.314951e-04	0.000000e+00	
-2.000000e+00	-1.091772e+00	1.225095e+00	4.166839e+01	6.475644e-06	2.540226e+05	1.013256e+05	2.881243e+02	9.995357e-02	8.227996e-04	0.000000e+00	
-1.948718e+00	-1.091772e+00	1.225094e+00	4.166843e+01	3.423400e-06	2.540224e+05	1.013255e+05	2.881242e+02	9.995372e-02	7.315758e-04	0.000000e+00	
-2.000000e+00	-1.123418e+00	1.225095e+00	4.166839e+01	1.064999e-05	2.540226e+05	1.013256e+05	2.881243e+02	9.995356e-02	8.230328e-04	0.000000e+00	
-1.948718e+00	-1.123418e+00	1.225094e+00	4.166843e+01	5.290928e-06	2.540224e+05	1.013255e+05	2.881242e+02	9.995373e-02	7.319912e-04	0.000000e+00	
-2.000000e+00	-1.155063e+00	1.225095e+00	4.166838e+01	2.002297e-05	2.540226e+05	1.013256e+05	2.881243e+02	9.995355e-02	8.234978e-04	0.000000e+00	
-1.948718e+00	-1.155063e+00	1.225094e+00	4.166843e+01	1.292725e-05	2.540224e+05	1.013255e+05	2.881242e+02	9.995373e-02	7.321487e-04	0.000000e+00	
-2.000000e+00	-1.186709e+00	1.225095e+00	4.166836e+01	3.321769e-05	2.540226e+05	1.013256e+05	2.881243e+02	9.995349e-02	8.248315e-04	0.000000e+00	
-1.948718e+00	-1.186709e+00	1.225094e+00	4.166840e+01	2.240980e-05	2.540224e+05	1.013255e+05	2.881242e+02	9.995366e-02	7.333381e-04	0.000000e+00	
-2.000000e+00	-1.218354e+00	1.225095e+00	4.166830e+01	3.889618e-05	2.540226e+05	1.013256e+05	2.881243e+02	9.995334e-02	8.267400e-04	0.000000e+00	
-1.948718e+00	-1.218354e+00	1.225094e+00	4.166831e+01	3.027958e-05	2.540224e+05	1.013255e+05	2.881242e+02	9.995344e-02	7.326754e-04	0.000000e+00	
-1.897436e+00	1.218354e+00	1.225094e+00	4.166829e+01	-6.215412e-06	2.540223e+05	1.013255e+05	2.881242e+02	9.995342e-02	6.649604e-04	0.000000e+00	
-1.897436e+00	1.250000e+00	1.225094e+00	4.166813e+01	8.031642e-07	2.540223e+05	1.013255e+05	2.881242e+02	9.995306e-02	6.656685e-04	0.000000e+00	
-1.897436e+00	1.186709e+00	1.225094e+00	4.166840e+01	3.430766e-06	2.540223e+05	1.013255e+05	2.881242e+02	9.995370e-02	6.652882e-04	0.000000e+00	
-1.897436e+00	1.155063e+00	1.225094e+00	4.166843e+01	1.047286e-05	2.540223e+05	1.013255e+05	2.881242e+02	9.995376e-02	6.646668e-04	0.000000e+00	
-1.897436e+00	1.123418e+00	1.225094e+00	4.166842e+01	1.318389e-05	2.540223e+05	1.013255e+05	2.881242e+02	9.995374e-02	6.647612e-04	0.000000e+00	
-1.897436e+00	1.091772e+00	1.225094e+00	4.166841e+01	9.997922e-06	2.540223e+05	1.013255e+05	2.881242e+02	9.995372e-02	6.645230e-04	0.000000e+00	
-1.897436e+00	1.060127e+00	1.225094e+00	4.166841e+01	6.786233e-06	2.540223e+05	1.013255e+05	2.881242e+02	9.995371e-02	6.645710e-04	0.000000e+00	
-1.897436e+00	1.028481e+00	1.225094e+00	4.166841e+01	4.398985e-06	2.540223e+05	1.013255e+05	2.881242e+02	9.995371e-02	6.645126e-04	0.000000e+00	
-1.897436e+00	9.968354e-01	1.225094e+00	4.166840e+01	3.475286e-06	2.540223e+05	1.013255e+05	2.881242e+02	9.995370e-02	6.645714e-04	0.000000e+00	
-1.897436e+00	9.651899e-01	1.225094e+00	4.166840e+01	2.986494e-06	2.540223e+05	1.013255e+05	2.881242e+02	9.995370e-02	6.645898e-04	0.000000e+00	
-1.897436e+00	9.335443e-01	1.225094e+00	4.166840e+01	2.791280e-06	2.540223e+05	1.013255e+05	2.881242e+02	9.995369e-02	6.646569e-04	0.000000e+00	
-1.897436e+00	9.018987e-01	1.225094e+00	4.166840e+01	2.582678e-06	2.540223e+05	1.013255e+05	2.881242e+02	9.995369e-02	6.647054e-04	0.000000e+00	
-1.897436e+00	8.702532e-01	1.225094e+00	4.166840e+01	2.438690e-06	2.540223e+05	1.013255e+05	2.881242e+02	9.995369e-02	6.647742e-04	0.000000e+00	
-1.897436e+00	8.386076e-01	1.225094e+00	4.166840e+01	2.272813e-06	2.540223e+05	1.013255e+05	2.881242e+02	9.995369e-02	6.648332e-04	0.000000e+00	
-1.897436e+00	8.069620e-01	1.225094e+00	4.166840e+01	2.123201e-06	2.540223e+05	1.013255e+05	2.881242e+02	9.995368e-02	6.648999e-04	0.000000e+00	
-1.897436e+00	7.753165e-01	1.225094e+00	4.166840e+01	1.957014e-06	2.540223e+05	1.013255e+05	2.881242e+02	9.995368e-02	6.649607e-04	0.000000e+00	
-1.897436e+00	7.436709e-01	1.225094e+00	4.166840e+01	1.799705e-06	2.540223e+05	1.013255e+05	2.881242e+02	9.995368e-02	6.650233e-04	0.000000e+00	
-1.897436e+00	7.120253e-01	1.225094e+00	4.166840e+01	1.640742e-06	2.540223e+05	1.013255e+05	2.881242e+02	9.995368e-02	6.650814e-04	0.000000e+00	
-1.897436e+00	6.803797e-01	1.225094e+00	4.166840e+01	1.490307e-06	2.540223e+05	1.013255e+05	2.881242e+02	9.995368e-02	6.651386e-04	0.000000e+00	
-1.897436e+00	6.487342e-01	1.225094e+00	4.166839e+01	1.340827e-06	2.540223e+05	1.013255e+05	2.881242e+02	9.995368e-02	6.651920e-04	0.000000e+00	
-1.897436e+00	6.170886e-01	1.225094e+00	4.166839e+01	1.194984e-06	2.540223e+05	1.013255e+05	2.881242e+02	9.995368e-02	6.652430e-04	0.000000e+00	
-1.897436e+00	5.854430e-01	1.225094e+00	4.166839e+01	1.048880e-06	2.540223e+05	1.013255e+05	2.881242e+02	9.995368e-02	6.652903e-04	0.000000e+00	
-1.897436e+00	5.537975e-01	1.225094e+00	4.166839e+01	9.038877e-07	2.540223e+05	1.013255e+05	2.881242e+02	9.995368e-02	6.653345e-04	0.000000e+00	
-1.897436e+00	5.221519e-01	1.225094e+00	4.166839e+01	7.586173e-07	2.540223e+05	1.013255e+05	2.881242e+02	9.995368e-02	6.653750e-04	0.000000e+00	
-1.897436e+00	4.905063e-01	1.225094e+00	4.166839e+01	6.140110e-07	2.540223e+05	1.013255e+05	2.881242e+02	9.995368e-02	6.654121e-04	0.000000e+00	
-1.897436e+00	4.588608e-01	1.225094e+00	4.166839e+01	4.697847e-07	2.540223e+05	1.013255e+05	2.881242e+02	9.995368e-02	6.654455e-04	0.000000e+00	
-1.897436e+00	4.272152e-01	1.225094e+00	4.166839e+01	3.267033e-07	2.540223e+05	1.013255e+05	2.881242e+02	9.995368e-02	6.654752e-04	0.000000e+00	
-1.897436e+00	3.955696e-01	1.225094e+00	4.166839e+01	1.850062e-07	2.540223e+05	1.013255e+05	2.881242e+02	9.995368e-02	6.655012e-04	0.000000e+00	
-1.897436e+00	3.639241e-01	1.225094e+00	4.166840e+01	4.539521e-08	2.540223e+05	1.013255e+05	2.881242e+02	9.995368e-02	6.655234e-04	0.000000e+00	
-1.897436e+00	3.322785e-01	1.225094e+00	4.166840e+01	-9.166378e-08	2.540223e+05	1.013255e+05	2.881242e+02	9.995368e-02	6.655420e-04	0.000000e+00	
-1.897436e+00	3.006329e-01	1.225094e+00	4.166840e+01	-2.255135e-07	2.540223e+05	1.013255e+05	2.881242e+02	9.995368e-02	6.655569e-04	0.000000e+00	
-1.897436e+00	2.689873e-01	1.225094e+00	4.166840e+01	-3.556135e-07	2.540223e+05	1.013255e+05	2.881242e+02	9.995368e-02	6.655681e-04	0.000000e+00	
-1.897436e+00	2.373418e-01	1.225094e+00	4.166840e+01	-4.813577e-07	2.540223e+05	1.013255e+05	2.881242e+02	9.995368e-02	6.655757e-04	0.000000e+00	
-1.897436e+00	2.056962e-01	1.225094e+00	4.166840e+01	-6.022114e-07	2.540223e+05	1.013255e+05	2.881242e+02	9.995368e-02	6.655798e-04	0.000000e+00	
-1.897436e+00	1.740506e-01	1.225094e+00	4.166840e+01	-7.176356e-07	2.540223e+05	1.013255e+05	2.881242e+02	9.995369e-02	6.655804e-04	0.000000e+00	
-1.897436e+00	1.424051e-01	1.225094e+00	4.166840e+01	-8.271469e-07	2.540223e+05	1.013255e+05	2.881242e+02	9.995369e-02	6.655776e-04	0.000000e+00	
-1.897436e+00	1.107595e-01	1.225094e+00	4.166840e+01	-9.302861e-07	2.540223e+05	1.013255e+05	2.881242e+02	9.995369e-02	6.655715e-04	0.000000e+00	
-1.897436e+00	7.911392e-02	1.225094e+00	4.166840e+01	-1.026645e-06	2.540223e+05	1.013255e+05	2.881242e+02	9.995369e-02	6.655621e-04	0.000000e+00	
-1.897436e+00	4.746835e-02	1.225094e+00	4.166840e+01	-1.115852e-06	2.540223e+05	1.013255e+05	2.881242e+02	9.995369e-02	6.655497e-04	0.000000e+00	
-1.897436e+00	1.582278e-02	1.225094e+00	4.166840e+01	-1.197586e-06	2.540223e+05	1.013255e+05	2.881242e+02	9.995369e-02	6.655342e-04	0.000000e+00	
-1.897436e+00	-1.582278e-02	1.225094e+00	4.166840e+01	-1.271566e-06	2.540223e+05	1.013255e+05	2.881242e+02	9.995369e-02	6.655158e-04	0.000000e+00	
-1.897436e+00	-4.746835e-02	1.225094e+00	4.166840e+01	-1.337562e-06	2.540223e+05	1.013255e+05	2.881242e+02	9.995369e-02	6.654947e-04	0.000000e+00	
-1.897436e+00	-7.911392e-02	1.225094e+00	4.166840e+01	-1.395388e-06	2.540223e+05	1.013255e+05	2.881242e+02	9.995369e-02	6.654709e-04	0.000000e+00	
-1.897436e+00	-1.107595e-01	1.225094e+00	4.166840e+01	-1.444909e-06	2.540223e+05	1.013255e+05	2.881242e+02	9.995369e-02	6.654445e-04	0.000000e+00	
-1.897436e+00	-1.424051e-01	1.225094e+00	4.166840e+01	-1.486030e-06	2.540223e+05	1.013255e+05	2.881242e+02	9.995369e-02	6.654158e-04	0.000000e+00	