TITLE = "SU2 Simulation"
VARIABLES = "Iteration","CL","CD","CSF","CMx","CMy","CMz","CFx","CFy","CFz","CL/CD","AoA","Custom_ObjFunc","Res_Flow[0]","Res_Flow[1]","Res_Flow[2]","Res_Flow[3]","Res_Flow[4]","Linear_Solver_Iterations","CFL_Number","Time(min)"
ZONE T= "Convergence history"
           0, 0.00000000e+00, 0.00000000e+00, 0.00000000e+00, 0.00000000e+00, 0.00000000e+00, 0.00000000e+00, 0.00000000e+00, 0.00000000e+00, 0.00000000e+00, 0.00000000e+00, 0.00000000e+00, 0.00000000e+00, -1.62443716e+01, -1.32514527e+01, -1.32295822e+01, -1.09138774e+01, 0.00000000e+00, 5.0000000000, 5.0000000000, 0.0013181833
           1, 0.00000000e+00, 0.00000000e+00, 0.00000000e+00, 0.00000000e+00, 0.00000000e+00, 0.00000000e+00, 0.00000000e+00, 0.00000000e+00, 0.00000000e+00, 0.00000000e+00, 0.00000000e+00, 0.00000000e+00, -1.59567078e+01, -1.20089821e+01, 1.23306919e-01, -1.03670966e+01, 0.00000000e+00, 5.0000000000, 5.0000000000, 0.0027039000
           2, 0.00000000e+00, 0.00000000e+00, 0.00000000e+00, 0.00000000e+00, 0.00000000e+00, 0.00000000e+00, 0.00000000e+00, 0.00000000e+00, 0.00000000e+00, 0.00000000e+00, 0.00000000e+00, 0.00000000e+00, -4.46824213e+00, -2.35654314e+00, 1.06179561e-01, 9.82943875e-01, 0.00000000e+00, 5.0000000000, 5.0000000000, 0.0040475833
           3, 0.00000000e+00, 0.00000000e+00, 0.00000000e+00, 0.00000000e+00, 0.00000000e+00, 0.00000000e+00, 0.00000000e+00, 0.00000000e+00, 0.00000000e+00, 0.00000000e+00, 0.00000000e+00, 0.00000000e+00, -4.37901874e+00, -2.09308401e+00, 8.90010227e-02, 1.06650694e+00, 0.00000000e+00, 5.0000000000, 5.0000000000, 0.0053436500
           4, 0.00000000e+00, 0.00000000e+00, 0.00000000e+00, 0.00000000e+00, 0.00000000e+00, 0.00000000e+00, 0.00000000e+00, 0.00000000e+00, 0.00000000e+00, 0.00000000e+00, 0.00000000e+00, 0.00000000e+00, -4.44714437e+00, -1.95471372e+00, 7.18291285e-02, 9.92824805e-01, 0.00000000e+00, 5.0000000000, 5.0000000000, 0.0068013667
           5, 0.00000000e+00, 0.00000000e+00, 0.00000000e+00, 0.00000000e+00, 0.00000000e+00, 0.00000000e+00, 0.00000000e+00, 0.00000000e+00, 0.00000000e+00, 0.00000000e+00, 0.00000000e+00, 0.00000000e+00, -4.56564495e+00, -1.86655948e+00, 5.46314837e-02, 8.74196511e-01, 0.00000000e+00, 5.0000000000, 5.0000000000, 0.0084278000
           6, 0.00000000e+00, 0.00000000e+00, 0.00000000e+00, 0.00000000e+00, 0.00000000e+00, 0.00000000e+00, 0.00000000e+00, 0.00000000e+00, 0.00000000e+00, 0.00000000e+00, 0.00000000e+00, 0.00000000e+00, -4.64997528e+00, -1.80579809e+00, 3.74053483e-02, 8.01217765e-01, 0.00000000e+00, 5.0000000000, 5.0000000000, 0.0098579667
           7, 0.00000000e+00, 0.00000000e+00, 0.00000000e+00, 0.00000000e+00, 0.00000000e+00, 0.00000000e+00, 0.00000000e+00, 0.00000000e+00, 0.00000000e+00, 0.00000000e+00, 0.00000000e+00, 0.00000000e+00, -4.67240330e+00, -1.76268829e+00, 2.01603330e-02, 7.89875018e-01, 0.00000000e+00, 5.0000000000, 5.0000000000, 0.0116649500
           8, 0.00000000e+00, 0.00000000e+00, 0.00000000e+00, 0.00000000e+00, 0.00000000e+00, 0.00000000e+00, 0.00000000e+00, 0.00000000e+00, 0.00000000e+00, 0.00000000e+00, 0.00000000e+00, 0.00000000e+00, -4.66880058e+00, -1.73215997e+00, 2.90107952e-03, 7.96995217e-01, 0.00000000e+00, 5.0000000000, 5.0000000000, 0.0133436500
           9, 0.00000000e+00, 0.00000000e+00, 0.00000000e+00, 0.00000000e+00, 0.00000000e+00, 0.00000000e+00, 0.00000000e+00, 0.00000000e+00, 0.00000000e+00, 0.00000000e+00, 0.00000000e+00, 0.00000000e+00, -4.65787319e+00, -1.71122241e+00, -1.43696884e-02, 8.07523317e-01, 0.00000000e+00, 5.0000000000, 5.0000000000, 0.0148174667
          10, 0.00000000e+00, 0.00000000e+00, 0.00000000e+00, 0.00000000e+00, 0.00000000e+00, 0.00000000e+00, 0.00000000e+00, 0.00000000e+00, 0.00000000e+00, 0.00000000e+00, 0.00000000e+00, 0.00000000e+00, -4.64073564e+00, -1.69798234e+00, -3.16513989e-02, 8.23333828e-01, 0.00000000e+00, 5.0000000000, 5.0000000000, 0.0164149000
          11, 0.00000000e+00, 0.00000000e+00, 0.00000000e+00, 0.00000000e+00, 0.00000000e+00, 0.00000000e+00, 0.00000000e+00, 0.00000000e+00, 0.00000000e+00, 0.00000000e+00, 0.00000000e+00, 0.00000000e+00, -4.61831343e+00, -1.69119868e+00, -4.89457347e-02, 8.44680622e-01, 0.00000000e+00, 5.0000000000, 5.0000000000, 0.0181743333
          12, 0.00000000e+00, 0.00000000e+00, 0.00000000e+00, 0.00000000e+00, 0.00000000e+00, 0.00000000e+00, 0.00000000e+00, 0.00000000e+00, 0.00000000e+00, 0.00000000e+00, 0.00000000e+00, 0.00000000e+00, -4.59323620e+00, -1.69004050e+00, -6.62551587e-02, 8.69140823e-01, 0.00000000e+00, 5.0000000000, 5.0000000000, 0.0199384167
          13, 0.00000000e+00, 0.00000000e+00, 0.00000000e+00, 0.00000000e+00, 0.00000000e+00, 0.00000000e+00, 0.00000000e+00, 0.00000000e+00, 0.00000000e+00, 0.00000000e+00, 0.00000000e+00, 0.00000000e+00, -4.56791979e+00, -1.69394008e+00, -8.35815764e-02, 8.94165074e-01, 0.00000000e+00, 5.0000000000, 5.0000000000, 0.0215246833
          14, 0.00000000e+00, 0.00000000e+00, 0.00000000e+00, 0.00000000e+00, 0.00000000e+00, 0.00000000e+00, 0.00000000e+00, 0.00000000e+00, 0.00000000e+00, 0.00000000e+00, 0.00000000e+00, 0.00000000e+00, -4.54408726e+00, -1.70249905e+00, -1.00925778e-01, 9.17874875e-01, 0.00000000e+00, 5.0000000000, 5.0000000000, 0.0229630833
          15, 0.00000000e+00, 0.00000000e+00, 0.00000000e+00, 0.00000000e+00, 0.00000000e+00, 0.00000000e+00, 0.00000000e+00, 0.00000000e+00, 0.00000000e+00, 0.00000000e+00, 0.00000000e+00, 0.00000000e+00, -4.52296517e+00, -1.71542553e+00, -1.18287485e-01, 9.38951005e-01, 0.00000000e+00, 5.0000000000, 5.0000000000, 0.0242592000
          16, 0.00000000e+00, 0.00000000e+00, 0.00000000e+00, 0.00000000e+00, 0.00000000e+00, 0.00000000e+00, 0.00000000e+00, 0.00000000e+00, 0.00000000e+00, 0.00000000e+00, 0.00000000e+00, 0.00000000e+00, -4.50542997e+00, -1.73249097e+00, -1.35665684e-01, 9.56476516e-01, 0.00000000e+00, 5.0000000000, 5.0000000000, 0.0256299833
          17, 0.00000000e+00, 0.00000000e+00, 0.00000000e+00, 0.00000000e+00, 0.00000000e+00, 0.00000000e+00, 0.00000000e+00, 0.00000000e+00, 0.00000000e+00, 0.00000000e+00, 0.00000000e+00, 0.00000000e+00, -4.49208455e+00, -1.75350276e+00, -1.53058991e-01, 9.69834416e-01, 0.00000000e+00, 5.0000000000, 5.0000000000, 0.0269564167
          18, 0.00000000e+00, 0.00000000e+00, 0.00000000e+00, 0.00000000e+00, 0.00000000e+00, 0.00000000e+00, 0.00000000e+00, 0.00000000e+00, 0.00000000e+00, 0.00000000e+00, 0.00000000e+00, 0.00000000e+00, -4.48332251e+00, -1.77829034e+00, -1.70465920e-01, 9.78626874e-01, 0.00000000e+00, 5.0000000000, 5.0000000000, 0.0283028667
          19, 0.00000000e+00, 0.00000000e+00, 0.00000000e+00, 0.00000000e+00, 0.00000000e+00, 0.00000000e+00, 0.00000000e+00, 0.00000000e+00, 0.00000000e+00, 0.00000000e+00, 0.00000000e+00, 0.00000000e+00, -4.47938459e+00, -1.80670178e+00, -1.87885018e-01, 9.82612268e-01, 0.00000000e+00, 5.0000000000, 5.0000000000, 0.0296149333
          20, 0.00000000e+00, 0.00000000e+00, 0.00000000e+00, 0.00000000e+00, 0.00000000e+00, 0.00000000e+00, 0.00000000e+00, 0.00000000e+00, 0.00000000e+00, 0.00000000e+00, 0.00000000e+00, 0.00000000e+00, -4.48040544e+00, -1.83860540e+00, -2.05314921e-01, 9.81656907e-01, 0.00000000e+00, 5.0000000000, 5.0000000000, 0.0309142833
          21, 0.00000000e+00, 0.00000000e+00, 0.00000000e+00, 0.00000000e+00, 0.00000000e+00, 0.00000000e+00, 0.00000000e+00, 0.00000000e+00, 0.00000000e+00, 0.00000000e+00, 0.00000000e+00, 0.00000000e+00, -4.48645635e+00, -1.87388856e+00, -2.22754361e-01, 9.75692451e-01, 0.00000000e+00, 5.0000000000, 5.0000000000, 0.0321458333
          22, 0.00000000e+00, 0.00000000e+00, 0.00000000e+00, 0.00000000e+00, 0.00000000e+00, 0.00000000e+00, 0.00000000e+00, 0.00000000e+00, 0.00000000e+00, 0.00000000e+00, 0.00000000e+00, 0.00000000e+00, -4.49758933e+00, -1.91244355e+00, -2.40202151e-01, 9.64672424e-01, 0.00000000e+00, 5.0000000000, 5.0000000000, 0.0334542667
          23, 0.00000000e+00, 0.00000000e+00, 0.00000000e+00, 0.00000000e+00, 0.00000000e+00, 0.00000000e+00, 0.00000000e+00, 0.00000000e+00, 0.00000000e+00, 0.00000000e+00, 0.00000000e+00, 0.00000000e+00, -4.51388458e+00, -1.95412791e+00, -2.57657181e-01, 9.48525254e-01, 0.00000000e+00, 5.0000000000, 5.0000000000, 0.0347481333
          24, 0.00000000e+00, 0.00000000e+00, 0.00000000e+00, 0.00000000e+00, 0.00000000e+00, 0.00000000e+00, 0.00000000e+00, 0.00000000e+00, 0.00000000e+00, 0.00000000e+00, 0.00000000e+00, 0.00000000e+00, -4.53550265e+00, -1.99868244e+00, -2.75118418e-01, 9.27103055e-01, 0.00000000e+00, 5.0000000000, 5.0000000000, 0.0361448333
          25, 0.00000000e+00, 0.00000000e+00, 0.00000000e+00, 0.00000000e+00, 0.00000000e+00, 0.00000000e+00, 0.00000000e+00, 0.00000000e+00, 0.00000000e+00, 0.00000000e+00, 0.00000000e+00, 0.00000000e+00, -4.56274227e+00, -2.04558429e+00, -2.92584914e-01, 9.00125265e-01, 0.00000000e+00, 5.0000000000, 5.0000000000, 0.0375732000
          26, 0.00000000e+00, 0.00000000e+00, 0.00000000e+00, 0.00000000e+00, 0.00000000e+00, 0.00000000e+00, 0.00000000e+00, 0.00000000e+00, 0.00000000e+00, 0.00000000e+00, 0.00000000e+00, 0.00000000e+00, -4.59610582e+00, -2.09380996e+00, -3.10055815e-01, 8.67116189e-01, 0.00000000e+00, 5.0000000000, 5.0000000000, 0.0389580167
          27, 0.00000000e+00, 0.00000000e+00, 0.00000000e+00, 0.00000000e+00, 0.00000000e+00, 0.00000000e+00, 0.00000000e+00, 0.00000000e+00, 0.00000000e+00, 0.00000000e+00, 0.00000000e+00, 0.00000000e+00, -4.63637285e+00, -2.14150400e+00, -3.27530382e-01, 8.27337450e-01, 0.00000000e+00, 5.0000000000, 5.0000000000, 0.0403278333
          28, 0.00000000e+00, 0.00000000e+00, 0.00000000e+00, 0.00000000e+00, 0.00000000e+00, 0.00000000e+00, 0.00000000e+00, 0.00000000e+00, 0.00000000e+00, 0.00000000e+00, 0.00000000e+00, 0.00000000e+00, -4.68467529e+00, -2.18564688e+00, -3.45008014e-01, 7.79724646e-01, 0.00000000e+00, 5.0000000000, 5.0000000000, 0.0416591500
          29, 0.00000000e+00, 0.00000000e+00, 0.00000000e+00, 0.00000000e+00, 0.00000000e+00, 0.00000000e+00, 0.00000000e+00, 0.00000000e+00, 0.00000000e+00, 0.00000000e+00, 0.00000000e+00, 0.00000000e+00, -4.74254074e+00, -2.22204806e+00, -3.62488283e-01, 7.22867743e-01, 0.00000000e+00, 5.0000000000, 5.0000000000, 0.0430700500
          30, 0.00000000e+00, 0.00000000e+00, 0.00000000e+00, 0.00000000e+00, 0.00000000e+00, 0.00000000e+00, 0.00000000e+00, 0.00000000e+00, 0.00000000e+00, 0.00000000e+00, 0.00000000e+00, 0.00000000e+00, -4.81176632e+00, -2.24622195e+00, -3.79971018e-01, 6.55182262e-01, 0.00000000e+00, 5.0000000000, 5.0000000000, 0.0444412500
          31, 0.00000000e+00, 0.00000000e+00, 0.00000000e+00, 0.00000000e+00, 0.00000000e+00, 0.00000000e+00, 0.00000000e+00, 0.00000000e+00, 0.00000000e+00, 0.00000000e+00, 0.00000000e+00, 0.00000000e+00, -4.89359344e+00, -2.25529998e+00, -3.97456495e-01, 5.75800168e-01, 0.00000000e+00, 5.0000000000, 5.0000000000, 0.0457594000
          32, 0.00000000e+00, 0.00000000e+00, 0.00000000e+00, 0.00000000e+00, 0.00000000e+00, 0.00000000e+00, 0.00000000e+00, 0.00000000e+00, 0.00000000e+00, 0.00000000e+00, 0.00000000e+00, 0.00000000e+00, -4.98528275e+00, -2.24975866e+00, -4.14945897e-01, 4.87941338e-01, 0.00000000e+00, 5.0000000000, 5.0000000000, 0.0469519833
          33, 0.00000000e+00, 0.00000000e+00, 0.00000000e+00, 0.00000000e+00, 0.00000000e+00, 0.00000000e+00, 0.00000000e+00, 0.00000000e+00, 0.00000000e+00, 0.00000000e+00, 0.00000000e+00, 0.00000000e+00, -5.06935457e+00, -2.23323434e+00, -4.32442270e-01, 4.08613844e-01, 0.00000000e+00, 5.0000000000, 5.0000000000, 0.0482394667
          34, 0.00000000e+00, 0.00000000e+00, 0.00000000e+00, 0.00000000e+00, 0.00000000e+00, 0.00000000e+00, 0.00000000e+00, 0.00000000e+00, 0.00000000e+00, 0.00000000e+00, 0.00000000e+00, 0.00000000e+00, -5.10142656e+00, -2.21064021e+00, -4.49951257e-01, 3.77975660e-01, 0.00000000e+00, 5.0000000000, 5.0000000000, 0.0495152333
          35, 0.00000000e+00, 0.00000000e+00, 0.00000000e+00, 0.00000000e+00, 0.00000000e+00, 0.00000000e+00, 0.00000000e+00, 0.00000000e+00, 0.00000000e+00, 0.00000000e+00, 0.00000000e+00, 0.00000000e+00, -5.05330547e+00, -2.18638873e+00, -4.67476677e-01, 4.21294878e-01, 0.00000000e+00, 5.0000000000, 5.0000000000, 0.0507286167
          36, 0.00000000e+00, 0.00000000e+00, 0.00000000e+00, 0.00000000e+00, 0.00000000e+00, 0.00000000e+00, 0.00000000e+00, 0.00000000e+00, 0.00000000e+00, 0.00000000e+00, 0.00000000e+00, 0.00000000e+00, -4.96285856e+00, -2.16367667e+00, -4.85012653e-01, 5.05938880e-01, 0.00000000e+00, 5.0000000000, 5.0000000000, 0.0519409333
          37, 0.00000000e+00, 0.00000000e+00, 0.00000000e+00, 0.00000000e+00, 0.00000000e+00, 0.00000000e+00, 0.00000000e+00, 0.00000000e+00, 0.00000000e+00, 0.00000000e+00, 0.00000000e+00, 0.00000000e+00, -4.87096867e+00, -2.14460458e+00, -5.02550987e-01, 5.93855910e-01, 0.00000000e+00, 5.0000000000, 5.0000000000, 0.0532296833
          38, 0.00000000e+00, 0.00000000e+00, 0.00000000e+00, 0.00000000e+00, 0.00000000e+00, 0.00000000e+00, 0.00000000e+00, 0.00000000e+00, 0.00000000e+00, 0.00000000e+00, 0.00000000e+00, 0.00000000e+00, -4.79180104e+00, -2.13053798e+00, -5.20088836e-01, 6.70417138e-01, 0.00000000e+00, 5.0000000000, 5.0000000000, 0.0544830000
          39, 0.00000000e+00, 0.00000000e+00, 0.00000000e+00, 0.00000000e+00, 0.00000000e+00, 0.00000000e+00, 0.00000000e+00, 0.00000000e+00, 0.00000000e+00, 0.00000000e+00, 0.00000000e+00, 0.00000000e+00, -4.72724840e+00, -2.12238043e+00, -5.37626398e-01, 7.33019446e-01, 0.00000000e+00, 5.0000000000, 5.0000000000, 0.0557688333
          40, 0.00000000e+00, 0.00000000e+00, 0.00000000e+00, 0.00000000e+00, 0.00000000e+00, 0.00000000e+00, 0.00000000e+00, 0.00000000e+00, 0.00000000e+00, 0.00000000e+00, 0.00000000e+00, 0.00000000e+00, -4.67603148e+00, -2.12073408e+00, -5.55164563e-01, 7.82522257e-01, 0.00000000e+00, 5.0000000000, 5.0000000000, 0.0570372833
          41, 0.00000000e+00, 0.00000000e+00, 0.00000000e+00, 0.00000000e+00, 0.00000000e+00, 0.00000000e+00, 0.00000000e+00, 0.00000000e+00, 0.00000000e+00, 0.00000000e+00, 0.00000000e+00, 0.00000000e+00, -4.63638915e+00, -2.12596143e+00, -5.72704193e-01, 8.20459262e-01, 0.00000000e+00, 5.0000000000, 5.0000000000, 0.0583072833
          42, 0.00000000e+00, 0.00000000e+00, 0.00000000e+00, 0.00000000e+00, 0.00000000e+00, 0.00000000e+00, 0.00000000e+00, 0.00000000e+00, 0.00000000e+00, 0.00000000e+00, 0.00000000e+00, 0.00000000e+00, -4.60667880e+00, -2.13814605e+00, -5.90245999e-01, 8.48345860e-01, 0.00000000e+00, 5.0000000000, 5.0000000000, 0.0595898500
          43, 0.00000000e+00, 0.00000000e+00, 0.00000000e+00, 0.00000000e+00, 0.00000000e+00, 0.00000000e+00, 0.00000000e+00, 0.00000000e+00, 0.00000000e+00, 0.00000000e+00, 0.00000000e+00, 0.00000000e+00, -4.58542968e+00, -2.15692679e+00, -6.07790534e-01, 8.67582731e-01, 0.00000000e+00, 5.0000000000, 5.0000000000, 0.0608927833
          44, 0.00000000e+00, 0.00000000e+00, 0.00000000e+00, 0.00000000e+00, 0.00000000e+00, 0.00000000e+00, 0.00000000e+00, 0.00000000e+00, 0.00000000e+00, 0.00000000e+00, 0.00000000e+00, 0.00000000e+00, -4.57127543e+00, -2.18116703e+00, -6.25338193e-01, 8.79509105e-01, 0.00000000e+00, 5.0000000000, 5.0000000000, 0.0621559000
          45, 0.00000000e+00, 0.00000000e+00, 0.00000000e+00, 0.00000000e+00, 0.00000000e+00, 0.00000000e+00, 0.00000000e+00, 0.00000000e+00, 0.00000000e+00, 0.00000000e+00, 0.00000000e+00, 0.00000000e+00, -4.56287701e+00, -2.20843042e+00, -6.42889193e-01, 8.85481217e-01, 0.00000000e+00, 5.0000000000, 5.0000000000, 0.0634625667
          46, 0.00000000e+00, 0.00000000e+00, 0.00000000e+00, 0.00000000e+00, 0.00000000e+00, 0.00000000e+00, 0.00000000e+00, 0.00000000e+00, 0.00000000e+00, 0.00000000e+00, 0.00000000e+00, 0.00000000e+00, -4.55886746e+00, -2.23439827e+00, -6.60443537e-01, 8.86937102e-01, 0.00000000e+00, 5.0000000000, 5.0000000000, 0.0647077667
          47, 0.00000000e+00, 0.00000000e+00, 0.00000000e+00, 0.00000000e+00, 0.00000000e+00, 0.00000000e+00, 0.00000000e+00, 0.00000000e+00, 0.00000000e+00, 0.00000000e+00, 0.00000000e+00, 0.00000000e+00, -4.55783800e+00, -2.25287184e+00, -6.78000976e-01, 8.85420185e-01, 0.00000000e+00, 5.0000000000, 5.0000000000, 0.0659964833
          48, 0.00000000e+00, 0.00000000e+00, 0.00000000e+00, 0.00000000e+00, 0.00000000e+00, 0.00000000e+00, 0.00000000e+00, 0.00000000e+00, 0.00000000e+00, 0.00000000e+00, 0.00000000e+00, 0.00000000e+00, -4.55838185e+00, -2.25751073e+00, -6.95560965e-01, 8.82533614e-01, 0.00000000e+00, 5.0000000000, 5.0000000000, 0.0674115333
          49, 0.00000000e+00, 0.00000000e+00, 0.00000000e+00, 0.00000000e+00, 0.00000000e+00, 0.00000000e+00, 0.00000000e+00, 0.00000000e+00, 0.00000000e+00, 0.00000000e+00, 0.00000000e+00, 0.00000000e+00, -4.55920270e+00, -2.24527764e+00, -7.13122640e-01, 8.79805885e-01, 0.00000000e+00, 5.0000000000, 5.0000000000, 0.0688183667
          50, 0.00000000e+00, 0.00000000e+00, 0.00000000e+00, 0.00000000e+00, 0.00000000e+00, 0.00000000e+00, 0.00000000e+00, 0.00000000e+00, 0.00000000e+00, 0.00000000e+00, 0.00000000e+00, 0.00000000e+00, -4.55927163e+00, -2.21847961e+00, -7.30684797e-01, 8.78479415e-01, 0.00000000e+00, 5.0000000000, 5.0000000000, 0.0701406667
          51, 0.00000000e+00, 0.00000000e+00, 0.00000000e+00, 0.00000000e+00, 0.00000000e+00, 0.00000000e+00, 0.00000000e+00, 0.00000000e+00, 0.00000000e+00, 0.00000000e+00, 0.00000000e+00, 0.00000000e+00, -4.55798544e+00, -2.18285372e+00, -7.48245894e-01, 8.79284930e-01, 0.00000000e+00, 5.0000000000, 5.0000000000, 0.0715305167
          52, 0.00000000e+00, 0.00000000e+00, 0.00000000e+00, 0.00000000e+00, 0.00000000e+00, 0.00000000e+00, 0.00000000e+00, 0.00000000e+00, 0.00000000e+00, 0.00000000e+00, 0.00000000e+00, 0.00000000e+00, -4.55526223e+00, -2.14408864e+00, -7.65804104e-01, 8.82300148e-01, 0.00000000e+00, 5.0000000000, 5.0000000000, 0.0728536000
          53, 0.00000000e+00, 0.00000000e+00, 0.00000000e+00, 0.00000000e+00, 0.00000000e+00, 0.00000000e+00, 0.00000000e+00, 0.00000000e+00, 0.00000000e+00, 0.00000000e+00, 0.00000000e+00, 0.00000000e+00, -4.55153059e+00, -2.10599212e+00, -7.83357468e-01, 8.86964845e-01, 0.00000000e+00, 5.0000000000, 5.0000000000, 0.0741126000
          54, 0.00000000e+00, 0.00000000e+00, 0.00000000e+00, 0.00000000e+00, 0.00000000e+00, 0.00000000e+00, 0.00000000e+00, 0.00000000e+00, 0.00000000e+00, 0.00000000e+00, 0.00000000e+00, 0.00000000e+00, -4.54762006e+00, -2.07044868e+00, -8.00904177e-01, 8.92240728e-01, 0.00000000e+00, 5.0000000000, 5.0000000000, 0.0754467333
          55, 0.00000000e+00, 0.00000000e+00, 0.00000000e+00, 0.00000000e+00, 0.00000000e+00, 0.00000000e+00, 0.00000000e+00, 0.00000000e+00, 0.00000000e+00, 0.00000000e+00, 0.00000000e+00, 0.00000000e+00, -4.54460563e+00, -2.03802443e+00, -8.18442921e-01, 8.96831723e-01, 0.00000000e+00, 5.0000000000, 5.0000000000, 0.0767742667
          56, 0.00000000e+00, 0.00000000e+00, 0.00000000e+00, 0.00000000e+00, 0.00000000e+00, 0.00000000e+00, 0.00000000e+00, 0.00000000e+00, 0.00000000e+00, 0.00000000e+00, 0.00000000e+00, 0.00000000e+00, -4.54366522e+00, -2.00855261e+00, -8.35973003e-01, 8.99374059e-01, 0.00000000e+00, 5.0000000000, 5.0000000000, 0.0779793500
          57, 0.00000000e+00, 0.00000000e+00, 0.00000000e+00, 0.00000000e+00, 0.00000000e+00, 0.00000000e+00, 0.00000000e+00, 0.00000000e+00, 0.00000000e+00, 0.00000000e+00, 0.00000000e+00, 0.00000000e+00, -4.54598586e+00, -1.98154747e+00, -8.53494049e-01, 8.98549798e-01, 0.00000000e+00, 5.0000000000, 5.0000000000, 0.0792623333
          58, 0.00000000e+00, 0.00000000e+00, 0.00000000e+00, 0.00000000e+00, 0.00000000e+00, 0.00000000e+00, 0.00000000e+00, 0.00000000e+00, 0.00000000e+00, 0.00000000e+00, 0.00000000e+00, 0.00000000e+00, -4.55272691e+00, -1.95647358e+00, -8.71005559e-01, 8.93121306e-01, 0.00000000e+00, 5.0000000000, 5.0000000000, 0.0805957333
          59, 0.00000000e+00, 0.00000000e+00, 0.00000000e+00, 0.00000000e+00, 0.00000000e+00, 0.00000000e+00, 0.00000000e+00, 0.00000000e+00, 0.00000000e+00, 0.00000000e+00, 0.00000000e+00, 0.00000000e+00, -4.56503434e+00, -1.93291213e+00, -8.88506702e-01, 8.81904647e-01, 0.00000000e+00, 5.0000000000, 5.0000000000, 0.0818708333
          60, 0.00000000e+00, 0.00000000e+00, 0.00000000e+00, 0.00000000e+00, 0.00000000e+00, 0.00000000e+00, 0.00000000e+00, 0.00000000e+00, 0.00000000e+00, 0.00000000e+00, 0.00000000e+00, 0.00000000e+00, -4.58409529e+00, -1.91064564e+00, -9.05996405e-01, 8.63701720e-01, 0.00000000e+00, 5.0000000000, 5.0000000000, 0.0831379667
          61, 0.00000000e+00, 0.00000000e+00, 0.00000000e+00, 0.00000000e+00, 0.00000000e+00, 0.00000000e+00, 0.00000000e+00, 0.00000000e+00, 0.00000000e+00, 0.00000000e+00, 0.00000000e+00, 0.00000000e+00, -4.61122805e+00, -1.88967315e+00, -9.23473541e-01, 8.37201763e-01, 0.00000000e+00, 5.0000000000, 5.0000000000, 0.0844121667
          62, 0.00000000e+00, 0.00000000e+00, 0.00000000e+00, 0.00000000e+00, 0.00000000e+00, 0.00000000e+00, 0.00000000e+00, 0.00000000e+00, 0.00000000e+00, 0.00000000e+00, 0.00000000e+00, 0.00000000e+00, -4.64801482e+00, -1.87017273e+00, -9.40937105e-01, 8.00848890e-01, 0.00000000e+00, 5.0000000000, 5.0000000000, 0.0856542333
          63, 0.00000000e+00, 0.00000000e+00, 0.00000000e+00, 0.00000000e+00, 0.00000000e+00, 0.00000000e+00, 0.00000000e+00, 0.00000000e+00, 0.00000000e+00, 0.00000000e+00, 0.00000000e+00, 0.00000000e+00, -4.69650294e+00, -1.85243479e+00, -9.58386326e-01, 7.52658910e-01, 0.00000000e+00, 5.0000000000, 5.0000000000, 0.0868511500
          64, 0.00000000e+00, 0.00000000e+00, 0.00000000e+00, 0.00000000e+00, 0.00000000e+00, 0.00000000e+00, 0.00000000e+00, 0.00000000e+00, 0.00000000e+00, 0.00000000e+00, 0.00000000e+00, 0.00000000e+00, -4.75952468e+00, -1.83679017e+00, -9.75820745e-01, 6.89963974e-01, 0.00000000e+00, 5.0000000000, 5.0000000000, 0.0881476667
          65, 0.00000000e+00, 0.00000000e+00, 0.00000000e+00, 0.00000000e+00, 0.00000000e+00, 0.00000000e+00, 0.00000000e+00, 0.00000000e+00, 0.00000000e+00, 0.00000000e+00, 0.00000000e+00, 0.00000000e+00, -4.84120416e+00, -1.82355023e+00, -9.93240273e-01, 6.09118413e-01, 0.00000000e+00, 5.0000000000, 5.0000000000, 0.0893913833
          66, 0.00000000e+00, 0.00000000e+00, 0.00000000e+00, 0.00000000e+00, 0.00000000e+00, 0.00000000e+00, 0.00000000e+00, 0.00000000e+00, 0.00000000e+00, 0.00000000e+00, 0.00000000e+00, 0.00000000e+00, -4.94759274e+00, -1.81296666e+00, -1.01064527e+00, 5.05625844e-01, 0.00000000e+00, 5.0000000000, 5.0000000000, 0.0906621167
          67, 0.00000000e+00, 0.00000000e+00, 0.00000000e+00, 0.00000000e+00, 0.00000000e+00, 0.00000000e+00, 0.00000000e+00, 0.00000000e+00, 0.00000000e+00, 0.00000000e+00, 0.00000000e+00, 0.00000000e+00, -5.08582754e+00, -1.80521114e+00, -1.02803674e+00, 3.77890816e-01, 0.00000000e+00, 5.0000000000, 5.0000000000, 0.0919332167
          68, 0.00000000e+00, 0.00000000e+00, 0.00000000e+00, 0.00000000e+00, 0.00000000e+00, 0.00000000e+00, 0.00000000e+00, 0.00000000e+00, 0.00000000e+00, 0.00000000e+00, 0.00000000e+00, 0.00000000e+00, -5.24676272e+00, -1.80037072e+00, -1.04541678e+00, 2.51529786e-01, 0.00000000e+00, 5.0000000000, 5.0000000000, 0.0931639000
          69, 0.00000000e+00, 0.00000000e+00, 0.00000000e+00, 0.00000000e+00, 0.00000000e+00, 0.00000000e+00, 0.00000000e+00, 0.00000000e+00, 0.00000000e+00, 0.00000000e+00, 0.00000000e+00, 0.00000000e+00, -5.31653977e+00, -1.79845426e+00, -1.06278960e+00, 2.28444739e-01, 0.00000000e+00, 5.0000000000, 5.0000000000, 0.0943858500
          70, 0.00000000e+00, 0.00000000e+00, 0.00000000e+00, 0.00000000e+00, 0.00000000e+00, 0.00000000e+00, 0.00000000e+00, 0.00000000e+00, 0.00000000e+00, 0.00000000e+00, 0.00000000e+00, 0.00000000e+00, -5.19839784e+00, -1.79940519e+00, -1.08016130e+00, 3.34465263e-01, 0.00000000e+00, 5.0000000000, 5.0000000000, 0.0956816333
          71, 0.00000000e+00, 0.00000000e+00, 0.00000000e+00, 0.00000000e+00, 0.00000000e+00, 0.00000000e+00, 0.00000000e+00, 0.00000000e+00, 0.00000000e+00, 0.00000000e+00, 0.00000000e+00, 0.00000000e+00, -5.04986689e+00, -1.80311752e+00, -1.09753288e+00, 4.60230330e-01, 0.00000000e+00, 5.0000000000, 5.0000000000, 0.0970126667
          72, 0.00000000e+00, 0.00000000e+00, 0.00000000e+00, 0.00000000e+00, 0.00000000e+00, 0.00000000e+00, 0.00000000e+00, 0.00000000e+00, 0.00000000e+00, 0.00000000e+00, 0.00000000e+00, 0.00000000e+00, -4.93250991e+00, -1.80945360e+00, -1.11489958e+00, 5.63935004e-01, 0.00000000e+00, 5.0000000000, 5.0000000000, 0.0982827833
          73, 0.00000000e+00, 0.00000000e+00, 0.00000000e+00, 0.00000000e+00, 0.00000000e+00, 0.00000000e+00, 0.00000000e+00, 0.00000000e+00, 0.00000000e+00, 0.00000000e+00, 0.00000000e+00, 0.00000000e+00, -4.84419621e+00, -1.81826284e+00, -1.13226043e+00, 6.44351786e-01, 0.00000000e+00, 5.0000000000, 5.0000000000, 0.0995615167
          74, 0.00000000e+00, 0.00000000e+00, 0.00000000e+00, 0.00000000e+00, 0.00000000e+00, 0.00000000e+00, 0.00000000e+00, 0.00000000e+00, 0.00000000e+00, 0.00000000e+00, 0.00000000e+00, 0.00000000e+00, -4.77761054e+00, -1.82940026e+00, -1.14961764e+00, 7.06060172e-01, 0.00000000e+00, 5.0000000000, 5.0000000000, 0.1007957833
          75, 0.00000000e+00, 0.00000000e+00, 0.00000000e+00, 0.00000000e+00, 0.00000000e+00, 0.00000000e+00, 0.00000000e+00, 0.00000000e+00, 0.00000000e+00, 0.00000000e+00, 0.00000000e+00, 0.00000000e+00, -4.72737295e+00, -1.84274284e+00, -1.16697416e+00, 7.53079910e-01, 0.00000000e+00, 5.0000000000, 5.0000000000, 0.1020435833
          76, 0.00000000e+00, 0.00000000e+00, 0.00000000e+00, 0.00000000e+00, 0.00000000e+00, 0.00000000e+00, 0.00000000e+00, 0.00000000e+00, 0.00000000e+00, 0.00000000e+00, 0.00000000e+00, 0.00000000e+00, -4.68984376e+00, -1.85820274e+00, -1.18433297e+00, 7.88365247e-01, 0.00000000e+00, 5.0000000000, 5.0000000000, 0.1033229333
          77, 0.00000000e+00, 0.00000000e+00, 0.00000000e+00, 0.00000000e+00, 0.00000000e+00, 0.00000000e+00, 0.00000000e+00, 0.00000000e+00, 0.00000000e+00, 0.00000000e+00, 0.00000000e+00, 0.00000000e+00, -4.66250313e+00, -1.87573650e+00, -1.20169699e+00, 8.14066635e-01, 0.00000000e+00, 5.0000000000, 5.0000000000, 0.1045514000
          78, 0.00000000e+00, 0.00000000e+00, 0.00000000e+00, 0.00000000e+00, 0.00000000e+00, 0.00000000e+00, 0.00000000e+00, 0.00000000e+00, 0.00000000e+00, 0.00000000e+00, 0.00000000e+00, 0.00000000e+00, -4.64353022e+00, -1.89534997e+00, -1.21906904e+00, 8.31791968e-01, 0.00000000e+00, 5.0000000000, 5.0000000000, 0.1057204500
          79, 0.00000000e+00, 0.00000000e+00, 0.00000000e+00, 0.00000000e+00, 0.00000000e+00, 0.00000000e+00, 0.00000000e+00, 0.00000000e+00, 0.00000000e+00, 0.00000000e+00, 0.00000000e+00, 0.00000000e+00, -4.63154738e+00, -1.91709944e+00, -1.23645184e+00, 8.42788652e-01, 0.00000000e+00, 5.0000000000, 5.0000000000, 0.1069565167
          80, 0.00000000e+00, 0.00000000e+00, 0.00000000e+00, 0.00000000e+00, 0.00000000e+00, 0.00000000e+00, 0.00000000e+00, 0.00000000e+00, 0.00000000e+00, 0.00000000e+00, 0.00000000e+00, 0.00000000e+00, -4.62546378e+00, -1.94109007e+00, -1.25384796e+00, 8.48063829e-01, 0.00000000e+00, 5.0000000000, 5.0000000000, 0.1081514000
          81, 0.00000000e+00, 0.00000000e+00, 0.00000000e+00, 0.00000000e+00, 0.00000000e+00, 0.00000000e+00, 0.00000000e+00, 0.00000000e+00, 0.00000000e+00, 0.00000000e+00, 0.00000000e+00, 0.00000000e+00, -4.62437634e+00, -1.96747317e+00, -1.27125981e+00, 8.48464544e-01, 0.00000000e+00, 5.0000000000, 5.0000000000, 0.1092978167
          82, 0.00000000e+00, 0.00000000e+00, 0.00000000e+00, 0.00000000e+00, 0.00000000e+00, 0.00000000e+00, 0.00000000e+00, 0.00000000e+00, 0.00000000e+00, 0.00000000e+00, 0.00000000e+00, 0.00000000e+00, -4.62750427e+00, -1.99644427e+00, -1.28868956e+00, 8.44732909e-01, 0.00000000e+00, 5.0000000000, 5.0000000000, 0.1105045667
          83, 0.00000000e+00, 0.00000000e+00, 0.00000000e+00, 0.00000000e+00, 0.00000000e+00, 0.00000000e+00, 0.00000000e+00, 0.00000000e+00, 0.00000000e+00, 0.00000000e+00, 0.00000000e+00, 0.00000000e+00, -4.63414360e+00, -2.02824369e+00, -1.30613914e+00, 8.37545552e-01, 0.00000000e+00, 5.0000000000, 5.0000000000, 0.1116740167
          84, 0.00000000e+00, 0.00000000e+00, 0.00000000e+00, 0.00000000e+00, 0.00000000e+00, 0.00000000e+00, 0.00000000e+00, 0.00000000e+00, 0.00000000e+00, 0.00000000e+00, 0.00000000e+00, 0.00000000e+00, -4.64363463e+00, -2.06316106e+00, -1.32361016e+00, 8.27542785e-01, 0.00000000e+00, 5.0000000000, 5.0000000000, 0.1128919833
          85, 0.00000000e+00, 0.00000000e+00, 0.00000000e+00, 0.00000000e+00, 0.00000000e+00, 0.00000000e+00, 0.00000000e+00, 0.00000000e+00, 0.00000000e+00, 0.00000000e+00, 0.00000000e+00, 0.00000000e+00, -4.65533798e+00, -2.10154473e+00, -1.34110400e+00, 8.15350390e-01, 0.00000000e+00, 5.0000000000, 5.0000000000, 0.1142826500
          86, 0.00000000e+00, 0.00000000e+00, 0.00000000e+00, 0.00000000e+00, 0.00000000e+00, 0.00000000e+00, 0.00000000e+00, 0.00000000e+00, 0.00000000e+00, 0.00000000e+00, 0.00000000e+00, 0.00000000e+00, -4.66861805e+00, -2.14381653e+00, -1.35862172e+00, 8.01595117e-01, 0.00000000e+00, 5.0000000000, 5.0000000000, 0.1159341167
          87, 0.00000000e+00, 0.00000000e+00, 0.00000000e+00, 0.00000000e+00, 0.00000000e+00, 0.00000000e+00, 0.00000000e+00, 0.00000000e+00, 0.00000000e+00, 0.00000000e+00, 0.00000000e+00, 0.00000000e+00, -4.68283334e+00, -2.19049040e+00, -1.37616417e+00, 7.86913703e-01, 0.00000000e+00, 5.0000000000, 5.0000000000, 0.1178363167
          88, 0.00000000e+00, 0.00000000e+00, 0.00000000e+00, 0.00000000e+00, 0.00000000e+00, 0.00000000e+00, 0.00000000e+00, 0.00000000e+00, 0.00000000e+00, 0.00000000e+00, 0.00000000e+00, 0.00000000e+00, -4.69733485e+00, -2.24219032e+00, -1.39373197e+00, 7.71954299e-01, 0.00000000e+00, 5.0000000000, 5.0000000000, 0.1198640667
          89, 0.00000000e+00, 0.00000000e+00, 0.00000000e+00, 0.00000000e+00, 0.00000000e+00, 0.00000000e+00, 0.00000000e+00, 0.00000000e+00, 0.00000000e+00, 0.00000000e+00, 0.00000000e+00, 0.00000000e+00, -4.71147366e+00, -2.29965210e+00, -1.41132565e+00, 7.57368794e-01, 0.00000000e+00, 5.0000000000, 5.0000000000, 0.1218357333