VARIABLES = "x"
 "y"
 "Density"
 "Momentum_x"
 "Momentum_y"
 "Energy"
 "Pressure"
 "Temperature"
 "Mach"
 "C<sub>p</sub>"
 "Roe_Dissipation"
ZONE
DT=(DOUBLE,DOUBLE,DOUBLE,DOUBLE,DOUBLE,DOUBLE,DOUBLE,DOUBLE,DOUBLE,DOUBLE,DOUBLE)
                     -2                    -0.6        1.22509396076202         41.670581817627    1.88875873206031E-11                254022.5                101325.5        288.124206542969      0.0999588817358017    0.000750658330507598                       0 
      -1.99749874937469                    -0.6        1.22509396076202         41.670581817627    1.30605149221777E-10                254022.5                101325.5        288.124206542969      0.0999588817358017    0.000750658327668555                       0 
      -1.99499749874937                    -0.6        1.22509396076202         41.670581817627     2.4232271112296E-10                254022.5                101325.5        288.124206542969      0.0999588817358017    0.000750658324829512                       0 
      -1.99249624812406                    -0.6        1.22509396076202         41.670581817627    3.54040273024133E-10                254022.5                101325.5        288.124206542969      0.0999588817358017    0.000750658321990469                       0 
      -1.98999499749875                    -0.6        1.22509396076202         41.670581817627    4.65757834925307E-10                254022.5                101325.5        288.124206542969      0.0999588817358017    0.000750658319151426                       0 
      -1.98749374687344                    -0.6        1.22509396076202         41.670581817627     5.7747539682648E-10                254022.5                101325.5        288.124206542969      0.0999588817358017    0.000750658316312383                       0 
      -1.98499249624812                    -0.6        1.22509396076202         41.670581817627    6.89192958727663E-10                254022.5                101325.5        288.124206542969      0.0999588817358017    0.000750658313473339                       0 
      -1.98249124562281                    -0.6        1.22509396076202         41.670581817627    8.00910520628837E-10                254022.5                101325.5        288.124206542969      0.0999588817358017    0.000750658310634296                       0 
       -1.9799899949975                    -0.6        1.22509396076202         41.670581817627     9.1262808253001E-10                254022.5                101325.5        288.124206542969      0.0999588817358017    0.000750658307795253                       0 
      -1.97748874437219                    -0.6        1.22509396076202         41.670581817627    1.02434564443119E-09                254022.5                101325.5        288.124206542969      0.0999588817358017     0.00075065830495621                       0 
      -1.97498749374687                    -0.6        1.22509396076202         41.670581817627    1.13583357771792E-09                254022.5                101325.5        288.124206542969      0.0999588817358017    0.000750658303732063                       0 
      -1.97248624312156                    -0.6        1.22509396076202         41.670581817627    1.24714744470783E-09                254022.5                101325.5        288.124206542969      0.0999588817358017    0.000750658303732063                       0 
      -1.96998499249625                    -0.6        1.22509396076202         41.670581817627    1.35883619082837E-09                254022.5                101325.5        288.124206542969      0.0999588817358017    0.000750658301095671                       0 
      -1.96748374187094                    -0.6        1.22509396076202         41.670581817627    1.47055375272955E-09                254022.5                101325.5        288.124206542969      0.0999588817358017    0.000750658298256628                       0 
      -1.96498249124562                    -0.6        1.22509396076202         41.670581817627    1.58227131463072E-09                254022.5                101325.5        288.124206542969      0.0999588817358017    0.000750658295417585                       0 
      -1.96248124062031                    -0.6        1.22509396076202         41.670581817627    1.69398887653189E-09                254022.5                101325.5        288.124206542969      0.0999588817358017    0.000750658292578542                       0 
        -1.959979989995                    -0.6        1.22509396076202         41.670581817627    1.80570643843308E-09                254022.5                101325.5        288.124206542969      0.0999588817358017    0.000750658289739499                       0 
      -1.95747873936968                    -0.6        1.22509396076202         41.670581817627    1.91742400033425E-09                254022.5                101325.5        288.124206542969      0.0999588817358017    0.000750658286900456                       0 
      -1.95497748874437                    -0.6        1.22509396076202         41.670581817627    2.02914156223542E-09                254022.5                101325.5        288.124206542969      0.0999588817358017    0.000750658284061412                       0 
      -1.95247623811906                    -0.6        1.22509396076202         41.670581817627    2.14085912413661E-09                254022.5                101325.5        288.124206542969      0.0999588817358017    0.000750658281222369                       0 
      -1.94997498749375                    -0.6        1.22509396076202         41.670581817627    2.25257668603778E-09                254022.5                101325.5        288.124206542969      0.0999588817358017    0.000750658278383326                       0 
      -1.94747373686843                    -0.6        1.22509396076202         41.670581817627    2.36559253114669E-09                254022.5                101325.5        288.124206542969      0.0999588817358017    0.000750658276250404                       0 
      -1.94497248624312                    -0.6        1.22509396076202         41.670581817627    2.47992003741448E-09                254022.5                101325.5        288.124206542969      0.0999588817358017    0.000750658274830879                       0 
      -1.94247123561781                    -0.6        1.22509396076202         41.670581817627    2.59424754368225E-09                254022.5                101325.5        288.124206542969      0.0999588817358017    0.000750658273411354                       0 
       -1.9399699849925                    -0.6        1.22509396076202         41.670581817627    2.70857504995003E-09                254022.5                101325.5        288.124206542969      0.0999588817358017    0.000750658271991829                       0 
      -1.93746873436718                    -0.6        1.22509396076202         41.670581817627    2.82290255621781E-09                254022.5                101325.5        288.124206542969      0.0999588817358017    0.000750658270572305                       0 
      -1.93496748374187                    -0.6        1.22509396076202         41.670581817627     2.9372300624856E-09                254022.5                101325.5        288.124206542969      0.0999588817358017     0.00075065826915278                       0 
      -1.93246623311656                    -0.6        1.22509396076202         41.670581817627    3.05155756875337E-09                254022.5                101325.5        288.124206542969      0.0999588817358017    0.000750658267733255                       0 
      -1.92996498249125                    -0.6        1.22509396076202         41.670581817627    3.16588507502115E-09                254022.5                101325.5        288.124206542969      0.0999588817358017     0.00075065826631373                       0 
      -1.92746373186593                    -0.6        1.22509396076202         41.670581817627    3.28021258128894E-09                254022.5                101325.5        288.124206542969      0.0999588817358017    0.000750658264894205                       0 
      -1.92496248124062                    -0.6        1.22509396076202         41.670581817627    3.39451326198341E-09                254022.5                101325.5        288.124206542969      0.0999588817358017    0.000750658263380599                       0 
      -1.92246123061531                    -0.6        1.22509396076202         41.670581817627    3.50843601434999E-09                254022.5                101325.5        288.124206542969      0.0999588817358017     0.00075065826054155                       0 
      -1.91995997998999                    -0.6        1.22509396076202         41.670581817627    3.62253122537673E-09                254022.5                101325.5        288.124206542969      0.0999588817358017    0.000750658258307335                       0 
      -1.91745872936468                    -0.6        1.22509396076202         41.670581817627    3.73685873164451E-09                254022.5                101325.5        288.124206542969      0.0999588817358017     0.00075065825688781                       0 
      -1.91495747873937                    -0.6        1.22509396076202         41.670581817627    3.85118623791229E-09                254022.5                101325.5        288.124206542969      0.0999588817358017    0.000750658255468285                       0 
      -1.91245622811406                    -0.6        1.22509396076202         41.670581817627    3.96551374418006E-09                254022.5                101325.5        288.124206542969      0.0999588817358017     0.00075065825404876                       0 
      -1.90995497748874                    -0.6        1.22509396076202         41.670581817627    4.07984125044785E-09                254022.5                101325.5        288.124206542969      0.0999588817358017    0.000750658252629235                       0 
      -1.90745372686343                    -0.6        1.22509396076202         41.670581817627    4.19416875671563E-09                254022.5                101325.5        288.124206542969      0.0999588817358017    0.000750658251209711                       0 
      -1.90495247623812                    -0.6        1.22509396076202         41.670581817627    4.30849626298341E-09                254022.5                101325.5        288.124206542969      0.0999588817358017    0.000750658249790186                       0 
      -1.90245122561281                    -0.6        1.22509396076202         41.670581817627    4.42282376925119E-09                254022.5                101325.5        288.124206542969      0.0999588817358017    0.000750658248370661                       0 
      -1.89994997498749                    -0.6        1.22509396076202         41.670581817627    4.53715127551897E-09                254022.5                101325.5        288.124206542969      0.0999588817358017    0.000750658246951136                       0 
      -1.89744872436218                    -0.6        1.22509396076202         41.670581817627    4.65147878178675E-09                254022.5                101325.5        288.124206542969      0.0999588817358017    0.000750658245531611                       0 
      -1.89494747373687                    -0.6        1.22509396076202         41.670581817627    4.76895811573073E-09                254022.5                101325.5        288.124206542969      0.0999588817358017    0.000750658245524403                       0 
      -1.89244622311156                    -0.6        1.22509396076202         41.670581817627    4.88645353666585E-09                254022.5                101325.5        288.124206542969      0.0999588817358017    0.000750658245524403                       0 
      -1.88994497248624                    -0.6        1.22509396076202         41.670581817627    5.00394895760096E-09                254022.5                101325.5        288.124206542969      0.0999588817358017    0.000750658245524403                       0 
      -1.88744372186093                    -0.6        1.22509396076202         41.670581817627    5.12144437853608E-09                254022.5                101325.5        288.124206542969      0.0999588817358017    0.000750658245524402                       0 
      -1.88494247123562                    -0.6        1.22509396076202         41.670581817627     5.2389397994712E-09                254022.5                101325.5        288.124206542969      0.0999588817358017    0.000750658245524403                       0 
      -1.88244122061031                    -0.6        1.22509396076202         41.670581817627    5.35643522040632E-09                254022.5                101325.5        288.124206542969      0.0999588817358017    0.000750658245524403                       0 
      -1.87993996998499                    -0.6        1.22509396076202         41.670581817627    5.47393064134143E-09                254022.5                101325.5        288.124206542969      0.0999588817358017    0.000750658245524402                       0 
      -1.87743871935968                    -0.6        1.22509396076202         41.670581817627    5.59142606227656E-09                254022.5                101325.5        288.124206542969      0.0999588817358017    0.000750658245524402                       0 
      -1.87493746873437                    -0.6        1.22509396076202         41.670581817627    5.70892148321167E-09                254022.5                101325.5        288.124206542969      0.0999588817358017    0.000750658245524403                       0 
      -1.87243621810905                    -0.6        1.22509396076202         41.670581817627    5.82618241614514E-09                254022.5                101325.5        288.124206542969      0.0999588817358017    0.000750658245524403                       0 
      -1.86993496748374                    -0.6        1.22509396076202         41.670581817627    5.94326188580671E-09                254022.5                101325.5        288.124206542969      0.0999588817358017    0.000750658245524402                       0 
      -1.86743371685843                    -0.6        1.22509396076202         41.670581817627    6.06072550385825E-09                254022.5                101325.5        288.124206542969      0.0999588817358017    0.000750658245524403                       0 
      -1.86493246623312                    -0.6        1.22509396076202         41.670581817627    6.17822092479337E-09                254022.5                101325.5        288.124206542969      0.0999588817358017    0.000750658245524402                       0 
       -1.8624312156078                    -0.6        1.22509396076202         41.670581817627    6.29571634572848E-09                254022.5                101325.5        288.124206542969      0.0999588817358017    0.000750658245524403                       0 
      -1.85992996498249                    -0.6        1.22509396076202         41.670581817627    6.41321176666361E-09                254022.5                101325.5        288.124206542969      0.0999588817358017    0.000750658245524403                       0 
      -1.85742871435718                    -0.6        1.22509396076202         41.670581817627    6.53070718759872E-09                254022.5                101325.5        288.124206542969      0.0999588817358017    0.000750658245524402                       0 
      -1.85492746373187                    -0.6        1.22509396076202         41.670581817627    6.64820260853384E-09                254022.5                101325.5        288.124206542969      0.0999588817358017    0.000750658245524402                       0 
      -1.85242621310655                    -0.6        1.22509396076202         41.670581817627    6.76569802946896E-09                254022.5                101325.5        288.124206542969      0.0999588817358017    0.000750658245524402                       0 
      -1.84992496248124                    -0.6        1.22509396076202         41.670581817627    6.88319345040408E-09                254022.5                101325.5        288.124206542969      0.0999588817358017    0.000750658245524403                       0 
      -1.84742371185593                    -0.6        1.22509396076202         41.670581817627    7.00068887133919E-09                254022.5                101325.5        288.124206542969      0.0999588817358017    0.000750658245524402                       0 
      -1.84492246123062                    -0.6        1.22509396076202         41.670581817627    7.12095452718696E-09                254022.5                101325.5        288.124206542969      0.0999588817358017    0.000750658243427655                       0 
       -1.8424212106053                    -0.6        1.22509396076202         41.670581817627    7.24407640119706E-09                254022.5                101325.5        288.124206542969      0.0999588817358017     0.00075065823916908                       0 
      -1.83991995997999                    -0.6        1.22509396076202         41.670581817627    7.36719827520715E-09                254022.5                101325.5        288.124206542969      0.0999588817358017    0.000750658234910506                       0 
      -1.83741870935468                    -0.6        1.22509396076202         41.670581817627    7.49032014921723E-09                254022.5                101325.5        288.124206542969      0.0999588817358017    0.000750658230651931                       0 
      -1.83491745872936                    -0.6        1.22509396076202         41.670581817627    7.61344202322733E-09                254022.5                101325.5        288.124206542969      0.0999588817358017    0.000750658226393356                       0 
      -1.83241620810405                    -0.6        1.22509396076202         41.670581817627    7.73656389723742E-09                254022.5                101325.5        288.124206542969      0.0999588817358017    0.000750658222134782                       0 
      -1.82991495747874                    -0.6        1.22509396076202         41.670581817627    7.85968577124751E-09                254022.5                101325.5        288.124206542969      0.0999588817358017    0.000750658217876207                       0 
      -1.82741370685343                    -0.6        1.22509396076202         41.670581817627    7.98280764525761E-09                254022.5                101325.5        288.124206542969      0.0999588817358017    0.000750658213617632                       0 
      -1.82491245622811                    -0.6        1.22509396076202         41.670581817627     8.1059295192677E-09                254022.5                101325.5        288.124206542969      0.0999588817358017    0.000750658209359058                       0 
       -1.8224112056028                    -0.6        1.22509396076202         41.670581817627    8.22902539296034E-09                254022.5                101325.5        288.124206542969      0.0999588817358017    0.000750658205013611                       0 
      -1.81990995497749                    -0.6        1.22509396076202         41.670581817627    8.35172241237514E-09                254022.5                101325.5        288.124206542969      0.0999588817358017    0.000750658199335511                       0 
      -1.81740870435218                    -0.6        1.22509396076202         41.670581817627    8.47459829755473E-09                254022.5                101325.5        288.124206542969      0.0999588817358017    0.000750658194255038                       0 
      -1.81490745372686                    -0.6        1.22509396076202         41.670581817627    8.59772017156482E-09                254022.5                101325.5        288.124206542969      0.0999588817358017    0.000750658189996464                       0 
      -1.81240620310155                    -0.6        1.22509396076202         41.670581817627    8.72084204557491E-09                254022.5                101325.5        288.124206542969      0.0999588817358017    0.000750658185737889                       0 
      -1.80990495247624                    -0.6        1.22509396076202         41.670581817627    8.84396391958501E-09                254022.5                101325.5        288.124206542969      0.0999588817358017    0.000750658181479314                       0 
      -1.80740370185093                    -0.6        1.22509396076202         41.670581817627     8.9670857935951E-09                254022.5                101325.5        288.124206542969      0.0999588817358017     0.00075065817722074                       0 
      -1.80490245122561                    -0.6        1.22509396076202         41.670581817627    9.09020766760519E-09                254022.5                101325.5        288.124206542969      0.0999588817358017    0.000750658172962165                       0 
       -1.8024012006003                    -0.6        1.22509396076202         41.670581817627    9.21332954161529E-09                254022.5                101325.5        288.124206542969      0.0999588817358017    0.000750658168703591                       0 
      -1.79989994997499                    -0.6        1.22509396076202         41.670581817627    9.33645141562538E-09                254022.5                101325.5        288.124206542969      0.0999588817358017    0.000750658164445016                       0 
      -1.79739869934967                    -0.6        1.22509396076202         41.670581817627    9.45957328963546E-09                254022.5                101325.5        288.124206542969      0.0999588817358017    0.000750658160186441                       0 
      -1.79489744872436                    -0.6        1.22509396076202         41.670581817627    9.58269516364555E-09                254022.5                101325.5        288.124206542969      0.0999588817358017    0.000750658155927867                       0 
      -1.79239619809905                    -0.6        1.22509396076202         41.670581817627    9.71302204283098E-09                254022.5                101325.5        288.124206542969      0.0999588817358017    0.000750658155884616                       0 
      -1.78989494747374                    -0.6        1.22509396076202         41.670581817627    9.84342284831712E-09                254022.5                101325.5        288.124206542969      0.0999588817358017    0.000750658155884616                       0 
      -1.78739369684842                    -0.6        1.22509396076202         41.670581817627    9.97382365380327E-09                254022.5                101325.5        288.124206542969      0.0999588817358017    0.000750658155884616                       0 
      -1.78489244622311                    -0.6        1.22509396076202         41.670581817627    1.01042244592894E-08                254022.5                101325.5        288.124206542969      0.0999588817358017    0.000750658155884616                       0 
       -1.7823911955978                    -0.6        1.22509396076202         41.670581817627    1.02346252647755E-08                254022.5                101325.5        288.124206542969      0.0999588817358017    0.000750658155884616                       0 
      -1.77988994497249                    -0.6        1.22509396076202         41.670581817627    1.03650260702617E-08                254022.5                101325.5        288.124206542969      0.0999588817358017    0.000750658155884616                       0 
      -1.77738869434717                    -0.6        1.22509396076202         41.670581817627    1.04954268757478E-08                254022.5                101325.5        288.124206542969      0.0999588817358017    0.000750658155884616                       0 
      -1.77488744372186                    -0.6        1.22509396076202         41.670581817627     1.0625827681234E-08                254022.5                101325.5        288.124206542969      0.0999588817358017    0.000750658155884616                       0 
      -1.77238619309655                    -0.6        1.22509396076202         41.670581817627    1.07562284867201E-08                254022.5                101325.5        288.124206542969      0.0999588817358017    0.000750658155884616                       0 
      -1.76988494247124                    -0.6        1.22509396076202         41.670581817627    1.08863828372848E-08                254022.5                101325.5        288.124206542969      0.0999588817358017    0.000750658155884616                       0 
      -1.76738369184592                    -0.6        1.22509396076202         41.670581817627    1.10163424898776E-08                254022.5                101325.5        288.124206542969      0.0999588817358017    0.000750658155884616                       0 
      -1.76488244122061                    -0.6        1.22509396076202         41.670581817627    1.11467073253907E-08                254022.5                101325.5        288.124206542969      0.0999588817358017    0.000750658155884616                       0 
       -1.7623811905953                    -0.6        1.22509396076202         41.670581817627    1.12771081308769E-08                254022.5                101325.5        288.124206542969      0.0999588817358017    0.000750658155884616                       0 
      -1.75987993996998                    -0.6        1.22509396076202         41.670581817627     1.1407508936363E-08                254022.5                101325.5        288.124206542969      0.0999588817358017    0.000750658155884616                       0 
      -1.75737868934467                    -0.6        1.22509396076202         41.670581817627    1.15379097418492E-08                254022.5                101325.5        288.124206542969      0.0999588817358017    0.000750658155884616                       0 
      -1.75487743871936                    -0.6        1.22509396076202         41.670581817627    1.16683105473353E-08                254022.5                101325.5        288.124206542969      0.0999588817358017    0.000750658155884616                       0 
      -1.75237618809405                    -0.6        1.22509396076202         41.670581817627    1.17987113528214E-08                254022.5                101325.5        288.124206542969      0.0999588817358017    0.000750658155884616                       0 
      -1.74987493746873                    -0.6        1.22509396076202         41.670581817627    1.19291121583076E-08                254022.5                101325.5        288.124206542969      0.0999588817358017    0.000750658155884616                       0 
      -1.74737368684342                    -0.6        1.22509396076202         41.670581817627    1.20595129637937E-08                254022.5                101325.5        288.124206542969      0.0999588817358017    0.000750658155884616                       0 
      -1.74487243621811                    -0.6        1.22509396076202         41.670581817627    1.21899137692799E-08                254022.5                101325.5        288.124206542969      0.0999588817358017    0.000750658155884616                       0 
       -1.7423711855928                    -0.6        1.22509396076202         41.670581817627    1.23249042921103E-08                254022.5                101325.5        288.124206542969      0.0999588817358017    0.000750658153117792                       0 
      -1.73986993496748                    -0.6        1.22509396076202         41.670581817627    1.24647241353272E-08                254022.5                101325.5        288.124206542969      0.0999588817358017    0.000750658147439706                       0 
      -1.73736868434217                    -0.6        1.22509396076202         41.670581817627    1.26045439785442E-08                254022.5                101325.5        288.124206542969      0.0999588817358017     0.00075065814176162                       0 
      -1.73486743371686                    -0.6        1.22509396076202         41.670581817627    1.27443638217611E-08                254022.5                101325.5        288.124206542969      0.0999588817358017    0.000750658136083533                       0 
      -1.73236618309155                    -0.6        1.22509396076202         41.670581817627     1.2884183664978E-08                254022.5                101325.5        288.124206542969      0.0999588817358017    0.000750658130405447                       0 
      -1.72986493246623                    -0.6        1.22509396076202         41.670581817627    1.30240035081949E-08                254022.5                101325.5        288.124206542969      0.0999588817358017    0.000750658124727361                       0 
      -1.72736368184092                    -0.6        1.22509396076202         41.670581817627    1.31638233514118E-08                254022.5                101325.5        288.124206542969      0.0999588817358017    0.000750658119049275                       0 
      -1.72486243121561                    -0.6        1.22509396076202         41.670581817627    1.33036431946288E-08                254022.5                101325.5        288.124206542969      0.0999588817358017    0.000750658113371188                       0 
       -1.7223611805903                    -0.6        1.22509396076202         41.670581817627    1.34434630378457E-08                254022.5                101325.5        288.124206542969      0.0999588817358017    0.000750658107693102                       0 