VARIABLES = "x"
 "y"
 "Density"
 "Momentum_x"
 "Momentum_y"
 "Energy"
 "Pressure"
 "Temperature"
 "Mach"
 "C<sub>p</sub>"
 "Roe_Dissipation"
ZONE
DT=(DOUBLE,DOUBLE,DOUBLE,DOUBLE,DOUBLE,DOUBLE,DOUBLE,DOUBLE,DOUBLE,DOUBLE,DOUBLE)
                     -2                     0.6        1.22509396076202         41.670581817627   -1.74537802371394E-11                254022.5                101325.5        288.124206542969      0.0999588817358017    0.000750658245524403                       0 
      -1.99749874937469                     0.6        1.22509396076202         41.670581817627   -1.27373305521982E-10                254022.5                101325.5        288.124206542969      0.0999588817358017    0.000750658244104881                       0 
      -1.99499749874937                     0.6        1.22509396076202         41.670581817627   -2.37292830806834E-10                254022.5                101325.5        288.124206542969      0.0999588817358017    0.000750658242685359                       0 
      -1.99249624812406                     0.6        1.22509396076202         41.670581817627   -3.47212356091676E-10                254022.5                101325.5        288.124206542969      0.0999588817358017    0.000750658241265838                       0 
      -1.98999499749875                     0.6        1.22509396076202         41.670581817627   -4.57131881376518E-10                254022.5                101325.5        288.124206542969      0.0999588817358017    0.000750658239846316                       0 
      -1.98749374687344                     0.6        1.22509396076202         41.670581817627    -5.6705140666136E-10                254022.5                101325.5        288.124206542969      0.0999588817358017    0.000750658238426795                       0 
      -1.98499249624812                     0.6        1.22509396076202         41.670581817627   -6.76970931946212E-10                254022.5                101325.5        288.124206542969      0.0999588817358017    0.000750658237007273                       0 
      -1.98249124562281                     0.6        1.22509396076202         41.670581817627   -7.86890457231054E-10                254022.5                101325.5        288.124206542969      0.0999588817358017    0.000750658235587752                       0 
       -1.9799899949975                     0.6        1.22509396076202         41.670581817627   -8.96809982515897E-10                254022.5                101325.5        288.124206542969      0.0999588817358017     0.00075065823416823                       0 
      -1.97748874437219                     0.6        1.22509396076202         41.670581817627   -1.00672950780075E-09                254022.5                101325.5        288.124206542969      0.0999588817358017    0.000750658232748708                       0 
      -1.97498749374687                     0.6        1.22509396076202         41.670581817627   -1.11616731448075E-09                254022.5                101325.5        288.124206542969      0.0999588817358017    0.000750658232136635                       0 
      -1.97248624312156                     0.6        1.22509396076202         41.670581817627    -1.2252399620805E-09                254022.5                101325.5        288.124206542969      0.0999588817358017    0.000750658232136635                       0 
      -1.96998499249625                     0.6        1.22509396076202         41.670581817627   -1.33509903715675E-09                254022.5                101325.5        288.124206542969      0.0999588817358017    0.000750658230818439                       0 
      -1.96748374187094                     0.6        1.22509396076202         41.670581817627   -1.44501856244159E-09                254022.5                101325.5        288.124206542969      0.0999588817358017    0.000750658229398917                       0 
      -1.96498249124562                     0.6        1.22509396076202         41.670581817627   -1.55493808772643E-09                254022.5                101325.5        288.124206542969      0.0999588817358017    0.000750658227979396                       0 
      -1.96248124062031                     0.6        1.22509396076202         41.670581817627   -1.66485761301128E-09                254022.5                101325.5        288.124206542969      0.0999588817358017    0.000750658226559874                       0 
        -1.959979989995                     0.6        1.22509396076202         41.670581817627   -1.77477713829613E-09                254022.5                101325.5        288.124206542969      0.0999588817358017    0.000750658225140353                       0 
      -1.95747873936968                     0.6        1.22509396076202         41.670581817627   -1.88469666358097E-09                254022.5                101325.5        288.124206542969      0.0999588817358017    0.000750658223720831                       0 
      -1.95497748874437                     0.6        1.22509396076202         41.670581817627   -1.99461618886581E-09                254022.5                101325.5        288.124206542969      0.0999588817358017    0.000750658222301309                       0 
      -1.95247623811906                     0.6        1.22509396076202         41.670581817627   -2.10453571415066E-09                254022.5                101325.5        288.124206542969      0.0999588817358017    0.000750658220881788                       0 
      -1.94997498749375                     0.6        1.22509396076202         41.670581817627   -2.21445523943551E-09                254022.5                101325.5        288.124206542969      0.0999588817358017    0.000750658219462266                       0 
      -1.94747373686843                     0.6        1.22509396076202         41.670581817627   -2.32560863156981E-09                254022.5                101325.5        288.124206542969      0.0999588817358017    0.000750658217336619                       0 
      -1.94497248624312                     0.6        1.22509396076202         41.670581817627   -2.43800860473667E-09                254022.5                101325.5        288.124206542969      0.0999588817358017    0.000750658214497569                       0 
      -1.94247123561781                     0.6        1.22509396076202         41.670581817627   -2.55040857790353E-09                254022.5                101325.5        288.124206542969      0.0999588817358017    0.000750658211658519                       0 
       -1.9399699849925                     0.6        1.22509396076202         41.670581817627   -2.66280855107038E-09                254022.5                101325.5        288.124206542969      0.0999588817358017    0.000750658208819469                       0 
      -1.93746873436718                     0.6        1.22509396076202         41.670581817627   -2.77520852423724E-09                254022.5                101325.5        288.124206542969      0.0999588817358017     0.00075065820598042                       0 
      -1.93496748374187                     0.6        1.22509396076202         41.670581817627    -2.8876084974041E-09                254022.5                101325.5        288.124206542969      0.0999588817358017     0.00075065820314137                       0 
      -1.93246623311656                     0.6        1.22509396076202         41.670581817627   -3.00000847057096E-09                254022.5                101325.5        288.124206542969      0.0999588817358017     0.00075065820030232                       0 
      -1.92996498249125                     0.6        1.22509396076202         41.670581817627   -3.11240844373781E-09                254022.5                101325.5        288.124206542969      0.0999588817358017     0.00075065819746327                       0 
      -1.92746373186593                     0.6        1.22509396076202         41.670581817627   -3.22480841690467E-09                254022.5                101325.5        288.124206542969      0.0999588817358017    0.000750658194624221                       0 
      -1.92496248124062                     0.6        1.22509396076202         41.670581817627   -3.33715130219667E-09                254022.5                101325.5        288.124206542969      0.0999588817358017    0.000750658191597009                       0 
      -1.92246123061531                     0.6        1.22509396076202         41.670581817627   -3.44868991296881E-09                254022.5                101325.5        288.124206542969      0.0999588817358017     0.00075065818591891                       0 
      -1.91995997998999                     0.6        1.22509396076202         41.670581817627   -3.56059553540918E-09                254022.5                101325.5        288.124206542969      0.0999588817358017     0.00075065818145048                       0 
      -1.91745872936468                     0.6        1.22509396076202         41.670581817627   -3.67299550857603E-09                254022.5                101325.5        288.124206542969      0.0999588817358017    0.000750658178611431                       0 
      -1.91495747873937                     0.6        1.22509396076202         41.670581817627   -3.78539548174289E-09                254022.5                101325.5        288.124206542969      0.0999588817358017    0.000750658175772381                       0 
      -1.91245622811406                     0.6        1.22509396076202         41.670581817627   -3.89779545490974E-09                254022.5                101325.5        288.124206542969      0.0999588817358017    0.000750658172933331                       0 
      -1.90995497748874                     0.6        1.22509396076202         41.670581817627   -4.01019542807661E-09                254022.5                101325.5        288.124206542969      0.0999588817358017    0.000750658170094281                       0 
      -1.90745372686343                     0.6        1.22509396076202         41.670581817627   -4.12259540124346E-09                254022.5                101325.5        288.124206542969      0.0999588817358017    0.000750658167255232                       0 
      -1.90495247623812                     0.6        1.22509396076202         41.670581817627   -4.23499537441032E-09                254022.5                101325.5        288.124206542969      0.0999588817358017    0.000750658164416182                       0 
      -1.90245122561281                     0.6        1.22509396076202         41.670581817627   -4.34739534757718E-09                254022.5                101325.5        288.124206542969      0.0999588817358017    0.000750658161577132                       0 
      -1.89994997498749                     0.6        1.22509396076202         41.670581817627   -4.45979532074404E-09                254022.5                101325.5        288.124206542969      0.0999588817358017    0.000750658158738082                       0 
      -1.89744872436218                     0.6        1.22509396076202         41.670581817627   -4.57219529391089E-09                254022.5                101325.5        288.124206542969      0.0999588817358017    0.000750658155899033                       0 
      -1.89494747373687                     0.6        1.22509396076202         41.670581817627   -4.68740580888813E-09                254022.5                101325.5        288.124206542969      0.0999588817358017    0.000750658155884616                       0 
      -1.89244622311156                     0.6        1.22509396076202         41.670581817627   -4.80263066892666E-09                254022.5                101325.5        288.124206542969      0.0999588817358017    0.000750658155884616                       0 
      -1.88994497248624                     0.6        1.22509396076202         41.670581817627   -4.91785552896519E-09                254022.5                101325.5        288.124206542969      0.0999588817358017    0.000750658155884616                       0 
      -1.88744372186093                     0.6        1.22509396076202         41.670581817627   -5.03308038900371E-09                254022.5                101325.5        288.124206542969      0.0999588817358017    0.000750658155884616                       0 
      -1.88494247123562                     0.6        1.22509396076202         41.670581817627   -5.14830524904225E-09                254022.5                101325.5        288.124206542969      0.0999588817358017    0.000750658155884616                       0 
      -1.88244122061031                     0.6        1.22509396076202         41.670581817627   -5.26353010908078E-09                254022.5                101325.5        288.124206542969      0.0999588817358017    0.000750658155884616                       0 
      -1.87993996998499                     0.6        1.22509396076202         41.670581817627    -5.3787549691193E-09                254022.5                101325.5        288.124206542969      0.0999588817358017    0.000750658155884616                       0 
      -1.87743871935968                     0.6        1.22509396076202         41.670581817627   -5.49397982915784E-09                254022.5                101325.5        288.124206542969      0.0999588817358017    0.000750658155884616                       0 
      -1.87493746873437                     0.6        1.22509396076202         41.670581817627   -5.60920468919636E-09                254022.5                101325.5        288.124206542969      0.0999588817358017    0.000750658155884616                       0 
      -1.87243621810905                     0.6        1.22509396076202         41.670581817627    -5.7239349552022E-09                254022.5                101325.5        288.124206542969      0.0999588817358017    0.000750658155884616                       0 
      -1.86993496748374                     0.6        1.22509396076202         41.670581817627   -5.83828246963523E-09                254022.5                101325.5        288.124206542969      0.0999588817358017    0.000750658155884616                       0 
      -1.86743371685843                     0.6        1.22509396076202         41.670581817627   -5.95344024941239E-09                254022.5                101325.5        288.124206542969      0.0999588817358017    0.000750658155884616                       0 
      -1.86493246623312                     0.6        1.22509396076202         41.670581817627   -6.06866510945092E-09                254022.5                101325.5        288.124206542969      0.0999588817358017    0.000750658155884616                       0 
       -1.8624312156078                     0.6        1.22509396076202         41.670581817627   -6.18388996948945E-09                254022.5                101325.5        288.124206542969      0.0999588817358017    0.000750658155884616                       0 
      -1.85992996498249                     0.6        1.22509396076202         41.670581817627   -6.29911482952798E-09                254022.5                101325.5        288.124206542969      0.0999588817358017    0.000750658155884616                       0 
      -1.85742871435718                     0.6        1.22509396076202         41.670581817627   -6.41433968956651E-09                254022.5                101325.5        288.124206542969      0.0999588817358017    0.000750658155884616                       0 
      -1.85492746373187                     0.6        1.22509396076202         41.670581817627   -6.52956454960504E-09                254022.5                101325.5        288.124206542969      0.0999588817358017    0.000750658155884616                       0 
      -1.85242621310655                     0.6        1.22509396076202         41.670581817627   -6.64478940964357E-09                254022.5                101325.5        288.124206542969      0.0999588817358017    0.000750658155884616                       0 
      -1.84992496248124                     0.6        1.22509396076202         41.670581817627    -6.7600142696821E-09                254022.5                101325.5        288.124206542969      0.0999588817358017    0.000750658155884616                       0 
      -1.84742371185593                     0.6        1.22509396076202         41.670581817627   -6.87523912972062E-09                254022.5                101325.5        288.124206542969      0.0999588817358017    0.000750658155884616                       0 
      -1.84492246123062                     0.6        1.22509396076202         41.670581817627    -6.9928715613478E-09                254022.5                101325.5        288.124206542969      0.0999588817358017    0.000750658153088952                       0 
       -1.8424212106053                     0.6        1.22509396076202         41.670581817627   -7.11298629137761E-09                254022.5                101325.5        288.124206542969      0.0999588817358017    0.000750658147410853                       0 
      -1.83991995997999                     0.6        1.22509396076202         41.670581817627   -7.23310102140741E-09                254022.5                101325.5        288.124206542969      0.0999588817358017    0.000750658141732753                       0 
      -1.83741870935468                     0.6        1.22509396076202         41.670581817627   -7.35321575143721E-09                254022.5                101325.5        288.124206542969      0.0999588817358017    0.000750658136054654                       0 
      -1.83491745872936                     0.6        1.22509396076202         41.670581817627   -7.47333048146702E-09                254022.5                101325.5        288.124206542969      0.0999588817358017    0.000750658130376554                       0 
      -1.83241620810405                     0.6        1.22509396076202         41.670581817627   -7.59344521149682E-09                254022.5                101325.5        288.124206542969      0.0999588817358017    0.000750658124698455                       0 
      -1.82991495747874                     0.6        1.22509396076202         41.670581817627   -7.71355994152662E-09                254022.5                101325.5        288.124206542969      0.0999588817358017    0.000750658119020355                       0 
      -1.82741370685343                     0.6        1.22509396076202         41.670581817627   -7.83367467155643E-09                254022.5                101325.5        288.124206542969      0.0999588817358017    0.000750658113342255                       0 
      -1.82491245622811                     0.6        1.22509396076202         41.670581817627   -7.95378940158624E-09                254022.5                101325.5        288.124206542969      0.0999588817358017    0.000750658107664156                       0 
       -1.8224112056028                     0.6        1.22509396076202         41.670581817627   -8.07384834383862E-09                254022.5                101325.5        288.124206542969      0.0999588817358017    0.000750658101986057                       0 
      -1.81990995497749                     0.6        1.22509396076202         41.670581817627    -8.1930514813987E-09                254022.5                101325.5        288.124206542969      0.0999588817358017    0.000750658096307957                       0 
      -1.81740870435218                     0.6        1.22509396076202         41.670581817627   -8.31263840363731E-09                254022.5                101325.5        288.124206542969      0.0999588817358017    0.000750658090629858                       0 
      -1.81490745372686                     0.6        1.22509396076202         41.670581817627   -8.43275313366711E-09                254022.5                101325.5        288.124206542969      0.0999588817358017    0.000750658084951758                       0 
      -1.81240620310155                     0.6        1.22509396076202         41.670581817627   -8.55286786369691E-09                254022.5                101325.5        288.124206542969      0.0999588817358017    0.000750658079273658                       0 
      -1.80990495247624                     0.6        1.22509396076202         41.670581817627   -8.67298259372672E-09                254022.5                101325.5        288.124206542969      0.0999588817358017    0.000750658073595559                       0 
      -1.80740370185093                     0.6        1.22509396076202         41.670581817627   -8.79309732375652E-09                254022.5                101325.5        288.124206542969      0.0999588817358017    0.000750658067917459                       0 
      -1.80490245122561                     0.6        1.22509396076202         41.670581817627   -8.91321205378632E-09                254022.5                101325.5        288.124206542969      0.0999588817358017     0.00075065806223936                       0 
       -1.8024012006003                     0.6        1.22509396076202         41.670581817627   -9.03332678381614E-09                254022.5                101325.5        288.124206542969      0.0999588817358017     0.00075065805656126                       0 
      -1.79989994997499                     0.6        1.22509396076202         41.670581817627   -9.15344151384594E-09                254022.5                101325.5        288.124206542969      0.0999588817358017    0.000750658050883161                       0 
      -1.79739869934967                     0.6        1.22509396076202         41.670581817627   -9.27355624387574E-09                254022.5                101325.5        288.124206542969      0.0999588817358017    0.000750658045205061                       0 
      -1.79489744872436                     0.6        1.22509396076202         41.670581817627   -9.39367097390554E-09                254022.5                101325.5        288.124206542969      0.0999588817358017    0.000750658039526962                       0 
      -1.79239619809905                     0.6        1.22509396076202         41.670581817627   -9.51998912659179E-09                254022.5                101325.5        288.124206542969      0.0999588817358017    0.000750658039469294                       0 
      -1.78989494747374                     0.6        1.22509396076202         41.670581817627   -9.64637092893234E-09                254022.5                101325.5        288.124206542969      0.0999588817358017    0.000750658039469294                       0 
      -1.78739369684842                     0.6        1.22509396076202         41.670581817627   -9.77275273127291E-09                254022.5                101325.5        288.124206542969      0.0999588817358017    0.000750658039469294                       0 
      -1.78489244622311                     0.6        1.22509396076202         41.670581817627   -9.89913453361347E-09                254022.5                101325.5        288.124206542969      0.0999588817358017    0.000750658039469294                       0 
       -1.7823911955978                     0.6        1.22509396076202         41.670581817627    -1.0025516335954E-08                254022.5                101325.5        288.124206542969      0.0999588817358017    0.000750658039469294                       0 
      -1.77988994497249                     0.6        1.22509396076202         41.670581817627   -1.01518981382946E-08                254022.5                101325.5        288.124206542969      0.0999588817358017    0.000750658039469294                       0 
      -1.77738869434717                     0.6        1.22509396076202         41.670581817627   -1.02782799406352E-08                254022.5                101325.5        288.124206542969      0.0999588817358017    0.000750658039469294                       0 
      -1.77488744372186                     0.6        1.22509396076202         41.670581817627   -1.04046617429757E-08                254022.5                101325.5        288.124206542969      0.0999588817358017    0.000750658039469294                       0 
      -1.77238619309655                     0.6        1.22509396076202         41.670581817627   -1.05310435453163E-08                254022.5                101325.5        288.124206542969      0.0999588817358017    0.000750658039469294                       0 
      -1.76988494247124                     0.6        1.22509396076202         41.670581817627   -1.06568937034789E-08                254022.5                101325.5        288.124206542969      0.0999588817358017    0.000750658039469294                       0 
      -1.76738369184592                     0.6        1.22509396076202         41.670581817627   -1.07823238657953E-08                254022.5                101325.5        288.124206542969      0.0999588817358017    0.000750658039469294                       0 
      -1.76488244122061                     0.6        1.22509396076202         41.670581817627    -1.0908628074933E-08                254022.5                101325.5        288.124206542969      0.0999588817358017    0.000750658039469294                       0 
       -1.7623811905953                     0.6        1.22509396076202         41.670581817627   -1.10350098772736E-08                254022.5                101325.5        288.124206542969      0.0999588817358017    0.000750658039469294                       0 
      -1.75987993996998                     0.6        1.22509396076202         41.670581817627   -1.11613916796141E-08                254022.5                101325.5        288.124206542969      0.0999588817358017    0.000750658039469294                       0 
      -1.75737868934467                     0.6        1.22509396076202         41.670581817627   -1.12877734819547E-08                254022.5                101325.5        288.124206542969      0.0999588817358017    0.000750658039469294                       0 
      -1.75487743871936                     0.6        1.22509396076202         41.670581817627   -1.14141552842952E-08                254022.5                101325.5        288.124206542969      0.0999588817358017    0.000750658039469294                       0 
      -1.75237618809405                     0.6        1.22509396076202         41.670581817627   -1.15405370866358E-08                254022.5                101325.5        288.124206542969      0.0999588817358017    0.000750658039469294                       0 
      -1.74987493746873                     0.6        1.22509396076202         41.670581817627   -1.16669188889764E-08                254022.5                101325.5        288.124206542969      0.0999588817358017    0.000750658039469294                       0 
      -1.74737368684342                     0.6        1.22509396076202         41.670581817627   -1.17933006913169E-08                254022.5                101325.5        288.124206542969      0.0999588817358017    0.000750658039469294                       0 
      -1.74487243621811                     0.6        1.22509396076202         41.670581817627   -1.19196824936575E-08                254022.5                101325.5        288.124206542969      0.0999588817358017    0.000750658039469294                       0 
       -1.7423711855928                     0.6        1.22509396076202         41.670581817627     -1.205011604576E-08                254022.5                101325.5        288.124206542969      0.0999588817358017    0.000750658037394176                       0 
      -1.73986993496748                     0.6        1.22509396076202         41.670581817627   -1.21848128664383E-08                254022.5                101325.5        288.124206542969      0.0999588817358017    0.000750658033135612                       0 
      -1.73736868434217                     0.6        1.22509396076202         41.670581817627   -1.23195096871167E-08                254022.5                101325.5        288.124206542969      0.0999588817358017    0.000750658028877047                       0 
      -1.73486743371686                     0.6        1.22509396076202         41.670581817627    -1.2454206507795E-08                254022.5                101325.5        288.124206542969      0.0999588817358017    0.000750658024618482                       0 
      -1.73236618309155                     0.6        1.22509396076202         41.670581817627   -1.25889033284734E-08                254022.5                101325.5        288.124206542969      0.0999588817358017    0.000750658020359918                       0 
      -1.72986493246623                     0.6        1.22509396076202         41.670581817627   -1.27236001491517E-08                254022.5                101325.5        288.124206542969      0.0999588817358017    0.000750658016101353                       0 
      -1.72736368184092                     0.6        1.22509396076202         41.670581817627   -1.28582969698301E-08                254022.5                101325.5        288.124206542969      0.0999588817358017    0.000750658011842788                       0 
      -1.72486243121561                     0.6        1.22509396076202         41.670581817627   -1.29929937905084E-08                254022.5                101325.5        288.124206542969      0.0999588817358017    0.000750658007584223                       0 
       -1.7223611805903                     0.6        1.22509396076202         41.670581817627   -1.31276906111868E-08                254022.5                101325.5        288.124206542969      0.0999588817358017    0.000750658003325659                       0 