VARIABLES = "x"
 "y"
 "Density"
 "Momentum_x"
 "Momentum_y"
 "Energy"
 "Pressure"
 "Temperature"
 "Mach"
 "C<sub>p</sub>"
 "Roe_Dissipation"
ZONE
DT=(DOUBLE,DOUBLE,DOUBLE,DOUBLE,DOUBLE,DOUBLE,DOUBLE,DOUBLE,DOUBLE,DOUBLE,DOUBLE)
                     -2                       0        1.22509396076202         41.670581817627    1.01093239275639E-12                254022.5                101325.5        288.124206542969      0.0999588817358017    0.000750657520256937                       0 
      -1.99749874937469                       0        1.22509396076202         41.670581817627    6.09734615113772E-12                254022.5                101325.5        288.124206542969      0.0999588817358017    0.000750657520256937                       0 
      -1.99499749874937                       0        1.22509396076202         41.670581817627    1.11837599095195E-11                254022.5                101325.5        288.124206542969      0.0999588817358017    0.000750657520256937                       0 
      -1.99249624812406                       0        1.22509396076202         41.670581817627    1.62701736679008E-11                254022.5                101325.5        288.124206542969      0.0999588817358017    0.000750657520256937                       0 
      -1.98999499749875                       0        1.22509396076202         41.670581817627    2.13565874262822E-11                254022.5                101325.5        288.124206542969      0.0999588817358017    0.000750657520256937                       0 
      -1.98749374687344                       0        1.22509396076202         41.670581817627    2.64430011846635E-11                254022.5                101325.5        288.124206542969      0.0999588817358017    0.000750657520256937                       0 
      -1.98499249624812                       0        1.22509396076202         41.670581817627    3.15294149430453E-11                254022.5                101325.5        288.124206542969      0.0999588817358017    0.000750657520256937                       0 
      -1.98249124562281                       0        1.22509396076202         41.670581817627    3.66158287014266E-11                254022.5                101325.5        288.124206542969      0.0999588817358017    0.000750657520256937                       0 
       -1.9799899949975                       0        1.22509396076202         41.670581817627    4.17022424598079E-11                254022.5                101325.5        288.124206542969      0.0999588817358017    0.000750657520256937                       0 
      -1.97748874437219                       0        1.22509396076202         41.670581817627    4.67886562181897E-11                254022.5                101325.5        288.124206542969      0.0999588817358017    0.000750657520256937                       0 
      -1.97498749374687                       0        1.22509396076202         41.670581817627     5.1875069976571E-11                254022.5                101325.5        288.124206542969      0.0999588817358017    0.000750657520256937                       0 
      -1.97248624312156                       0        1.22509396076202         41.670581817627    5.69614837349523E-11                254022.5                101325.5        288.124206542969      0.0999588817358017    0.000750657520256937                       0 
      -1.96998499249625                       0        1.22509396076202         41.670581817627    6.20478974933341E-11                254022.5                101325.5        288.124206542969      0.0999588817358017    0.000750657520256937                       0 
      -1.96748374187094                       0        1.22509396076202         41.670581817627    6.71343112517155E-11                254022.5                101325.5        288.124206542969      0.0999588817358017    0.000750657520256937                       0 
      -1.96498249124562                       0        1.22509396076202         41.670581817627    7.22207250100968E-11                254022.5                101325.5        288.124206542969      0.0999588817358017    0.000750657520256937                       0 
      -1.96248124062031                       0        1.22509396076202         41.670581817627    7.73071387684781E-11                254022.5                101325.5        288.124206542969      0.0999588817358017    0.000750657520256937                       0 
        -1.959979989995                       0        1.22509396076202         41.670581817627    8.23935525268599E-11                254022.5                101325.5        288.124206542969      0.0999588817358017    0.000750657520256937                       0 
      -1.95747873936968                       0        1.22509396076202         41.670581817627    8.74799662852412E-11                254022.5                101325.5        288.124206542969      0.0999588817358017    0.000750657520256937                       0 
      -1.95497748874437                       0        1.22509396076202         41.670581817627    9.25663800436225E-11                254022.5                101325.5        288.124206542969      0.0999588817358017    0.000750657520256937                       0 
      -1.95247623811906                       0        1.22509396076202         41.670581817627    9.76527938020043E-11                254022.5                101325.5        288.124206542969      0.0999588817358017    0.000750657520256937                       0 
      -1.94997498749375                       0        1.22509396076202         41.670581817627    1.02739207560386E-10                254022.5                101325.5        288.124206542969      0.0999588817358017    0.000750657520256937                       0 
      -1.94747373686843                       0        1.22509396076202         41.670581817627    1.07866204979323E-10                254022.5                101325.5        288.124206542969      0.0999588817358017    0.000750657517432439                       0 
      -1.94497248624312                       0        1.22509396076202         41.670581817627    1.13034204246639E-10                254022.5                101325.5        288.124206542969      0.0999588817358017    0.000750657511754339                       0 
      -1.94247123561781                       0        1.22509396076202         41.670581817627    1.18202203513955E-10                254022.5                101325.5        288.124206542969      0.0999588817358017     0.00075065750607624                       0 
       -1.9399699849925                       0        1.22509396076202         41.670581817627    1.23370202781271E-10                254022.5                101325.5        288.124206542969      0.0999588817358017    0.000750657500398141                       0 
      -1.93746873436718                       0        1.22509396076202         41.670581817627    1.28538202048586E-10                254022.5                101325.5        288.124206542969      0.0999588817358017    0.000750657494720041                       0 
      -1.93496748374187                       0        1.22509396076202         41.670581817627    1.33706201315903E-10                254022.5                101325.5        288.124206542969      0.0999588817358017    0.000750657489041941                       0 
      -1.93246623311656                       0        1.22509396076202         41.670581817627    1.38874200583218E-10                254022.5                101325.5        288.124206542969      0.0999588817358017    0.000750657483363842                       0 
      -1.92996498249125                       0        1.22509396076202         41.670581817627    1.44042199850534E-10                254022.5                101325.5        288.124206542969      0.0999588817358017    0.000750657477685742                       0 
      -1.92746373186593                       0        1.22509396076202         41.670581817627     1.4921019911785E-10                254022.5                101325.5        288.124206542969      0.0999588817358017    0.000750657472007643                       0 
      -1.92496248124062                       0        1.22509396076202         41.670581817627    1.54378198385166E-10                254022.5                101325.5        288.124206542969      0.0999588817358017    0.000750657466329544                       0 
      -1.92246123061531                       0        1.22509396076202         41.670581817627    1.59546197652482E-10                254022.5                101325.5        288.124206542969      0.0999588817358017    0.000750657460651444                       0 
      -1.91995997998999                       0        1.22509396076202         41.670581817627    1.64714196919798E-10                254022.5                101325.5        288.124206542969      0.0999588817358017    0.000750657454973344                       0 
      -1.91745872936468                       0        1.22509396076202         41.670581817627    1.69882196187114E-10                254022.5                101325.5        288.124206542969      0.0999588817358017    0.000750657449295245                       0 
      -1.91495747873937                       0        1.22509396076202         41.670581817627     1.7505019545443E-10                254022.5                101325.5        288.124206542969      0.0999588817358017    0.000750657443617145                       0 
      -1.91245622811406                       0        1.22509396076202         41.670581817627    1.80218194721745E-10                254022.5                101325.5        288.124206542969      0.0999588817358017    0.000750657437939046                       0 
      -1.90995497748874                       0        1.22509396076202         41.670581817627    1.85386193989061E-10                254022.5                101325.5        288.124206542969      0.0999588817358017    0.000750657432260946                       0 
      -1.90745372686343                       0        1.22509396076202         41.670581817627    1.90554193256377E-10                254022.5                101325.5        288.124206542969      0.0999588817358017    0.000750657426582847                       0 
      -1.90495247623812                       0        1.22509396076202         41.670581817627    1.95722192523693E-10                254022.5                101325.5        288.124206542969      0.0999588817358017    0.000750657420904747                       0 
      -1.90245122561281                       0        1.22509396076202         41.670581817627    2.00890191791009E-10                254022.5                101325.5        288.124206542969      0.0999588817358017    0.000750657415226648                       0 
      -1.89994997498749                       0        1.22509396076202         41.670581817627    2.06058191058325E-10                254022.5                101325.5        288.124206542969      0.0999588817358017    0.000750657409548548                       0 
      -1.89744872436218                       0        1.22509396076202         41.670581817627    2.11226190325641E-10                254022.5                101325.5        288.124206542969      0.0999588817358017    0.000750657403870449                       0 
      -1.89494747373687                       0        1.22509396076202         41.670581817627    2.16574543410258E-10                254022.5                101325.5        288.124206542969      0.0999588817358017    0.000750657398192362                       0 
      -1.89244622311156                       0        1.22509396076202         41.670581817627    2.21923817024345E-10                254022.5                101325.5        288.124206542969      0.0999588817358017    0.000750657392514276                       0 
      -1.88994497248624                       0        1.22509396076202         41.670581817627    2.27273090638433E-10                254022.5                101325.5        288.124206542969      0.0999588817358017     0.00075065738683619                       0 
      -1.88744372186093                       0        1.22509396076202         41.670581817627     2.3262236425252E-10                254022.5                101325.5        288.124206542969      0.0999588817358017    0.000750657381158103                       0 
      -1.88494247123562                       0        1.22509396076202         41.670581817627    2.37971637866608E-10                254022.5                101325.5        288.124206542969      0.0999588817358017    0.000750657375480017                       0 
      -1.88244122061031                       0        1.22509396076202         41.670581817627    2.43320911480695E-10                254022.5                101325.5        288.124206542969      0.0999588817358017    0.000750657369801931                       0 
      -1.87993996998499                       0        1.22509396076202         41.670581817627    2.48670185094782E-10                254022.5                101325.5        288.124206542969      0.0999588817358017    0.000750657364123844                       0 
      -1.87743871935968                       0        1.22509396076202         41.670581817627     2.5401945870887E-10                254022.5                101325.5        288.124206542969      0.0999588817358017    0.000750657358445758                       0 
      -1.87493746873437                       0        1.22509396076202         41.670581817627    2.59368732322957E-10                254022.5                101325.5        288.124206542969      0.0999588817358017    0.000750657352767672                       0 
      -1.87243621810905                       0        1.22509396076202         41.670581817627    2.64718005937044E-10                254022.5                101325.5        288.124206542969      0.0999588817358017    0.000750657347089585                       0 
      -1.86993496748374                       0        1.22509396076202         41.670581817627    2.70067279551132E-10                254022.5                101325.5        288.124206542969      0.0999588817358017    0.000750657341411499                       0 
      -1.86743371685843                       0        1.22509396076202         41.670581817627    2.75416553165219E-10                254022.5                101325.5        288.124206542969      0.0999588817358017    0.000750657335733413                       0 
      -1.86493246623312                       0        1.22509396076202         41.670581817627    2.80765826779306E-10                254022.5                101325.5        288.124206542969      0.0999588817358017    0.000750657330055326                       0 
       -1.8624312156078                       0        1.22509396076202         41.670581817627    2.86115100393394E-10                254022.5                101325.5        288.124206542969      0.0999588817358017     0.00075065732437724                       0 
      -1.85992996498249                       0        1.22509396076202         41.670581817627    2.91464374007481E-10                254022.5                101325.5        288.124206542969      0.0999588817358017    0.000750657318699154                       0 
      -1.85742871435718                       0        1.22509396076202         41.670581817627    2.96813647621569E-10                254022.5                101325.5        288.124206542969      0.0999588817358017    0.000750657313021067                       0 
      -1.85492746373187                       0        1.22509396076202         41.670581817627    3.02162921235656E-10                254022.5                101325.5        288.124206542969      0.0999588817358017    0.000750657307342981                       0 
      -1.85242621310655                       0        1.22509396076202         41.670581817627    3.07512194849744E-10                254022.5                101325.5        288.124206542969      0.0999588817358017    0.000750657301664895                       0 
      -1.84992496248124                       0        1.22509396076202         41.670581817627    3.12861468463831E-10                254022.5                101325.5        288.124206542969      0.0999588817358017    0.000750657295986809                       0 
      -1.84742371185593                       0        1.22509396076202         41.670581817627    3.18210742077918E-10                254022.5                101325.5        288.124206542969      0.0999588817358017    0.000750657290308722                       0 
      -1.84492246123062                       0        1.22509396076202         41.670581817627    3.23745509833558E-10                254022.5                101325.5        288.124206542969      0.0999588817358017    0.000750657287426293                       0 
       -1.8424212106053                       0        1.22509396076202         41.670581817627    3.29471529144685E-10                254022.5                101325.5        288.124206542969      0.0999588817358017    0.000750657287426293                       0 
      -1.83991995997999                       0        1.22509396076202         41.670581817627    3.35197548455812E-10                254022.5                101325.5        288.124206542969      0.0999588817358017    0.000750657287426293                       0 
      -1.83741870935468                       0        1.22509396076202         41.670581817627    3.40923567766938E-10                254022.5                101325.5        288.124206542969      0.0999588817358017    0.000750657287426293                       0 
      -1.83491745872936                       0        1.22509396076202         41.670581817627    3.46649587078065E-10                254022.5                101325.5        288.124206542969      0.0999588817358017    0.000750657287426293                       0 
      -1.83241620810405                       0        1.22509396076202         41.670581817627    3.52375606389192E-10                254022.5                101325.5        288.124206542969      0.0999588817358017    0.000750657287426293                       0 
      -1.82991495747874                       0        1.22509396076202         41.670581817627    3.58101625700318E-10                254022.5                101325.5        288.124206542969      0.0999588817358017    0.000750657287426293                       0 
      -1.82741370685343                       0        1.22509396076202         41.670581817627    3.63827645011445E-10                254022.5                101325.5        288.124206542969      0.0999588817358017    0.000750657287426293                       0 
      -1.82491245622811                       0        1.22509396076202         41.670581817627    3.69553664322572E-10                254022.5                101325.5        288.124206542969      0.0999588817358017    0.000750657287426293                       0 
       -1.8224112056028                       0        1.22509396076202         41.670581817627    3.75279683633698E-10                254022.5                101325.5        288.124206542969      0.0999588817358017    0.000750657287426293                       0 
      -1.81990995497749                       0        1.22509396076202         41.670581817627    3.81005702944826E-10                254022.5                101325.5        288.124206542969      0.0999588817358017    0.000750657287426293                       0 
      -1.81740870435218                       0        1.22509396076202         41.670581817627    3.86731722255952E-10                254022.5                101325.5        288.124206542969      0.0999588817358017    0.000750657287426293                       0 
      -1.81490745372686                       0        1.22509396076202         41.670581817627    3.92457741567079E-10                254022.5                101325.5        288.124206542969      0.0999588817358017    0.000750657287426293                       0 
      -1.81240620310155                       0        1.22509396076202         41.670581817627    3.98183760878205E-10                254022.5                101325.5        288.124206542969      0.0999588817358017    0.000750657287426293                       0 
      -1.80990495247624                       0        1.22509396076202         41.670581817627    4.03909780189332E-10                254022.5                101325.5        288.124206542969      0.0999588817358017    0.000750657287426293                       0 
      -1.80740370185093                       0        1.22509396076202         41.670581817627    4.09635799500459E-10                254022.5                101325.5        288.124206542969      0.0999588817358017    0.000750657287426293                       0 
      -1.80490245122561                       0        1.22509396076202         41.670581817627    4.15361818811585E-10                254022.5                101325.5        288.124206542969      0.0999588817358017    0.000750657287426293                       0 
       -1.8024012006003                       0        1.22509396076202         41.670581817627    4.21087838122712E-10                254022.5                101325.5        288.124206542969      0.0999588817358017    0.000750657287426293                       0 
      -1.79989994997499                       0        1.22509396076202         41.670581817627    4.26813857433839E-10                254022.5                101325.5        288.124206542969      0.0999588817358017    0.000750657287426293                       0 
      -1.79739869934967                       0        1.22509396076202         41.670581817627    4.32539876744965E-10                254022.5                101325.5        288.124206542969      0.0999588817358017    0.000750657287426293                       0 
      -1.79489744872436                       0        1.22509396076202         41.670581817627    4.38265896056092E-10                254022.5                101325.5        288.124206542969      0.0999588817358017    0.000750657287426293                       0 
      -1.79239619809905                       0        1.22509396076202         41.670581817627    4.44485892077732E-10                254022.5                101325.5        288.124206542969      0.0999588817358017    0.000750657278995665                       0 
      -1.78989494747374                       0        1.22509396076202         41.670581817627    4.50710956502511E-10                254022.5                101325.5        288.124206542969      0.0999588817358017    0.000750657270478536                       0 
      -1.78739369684842                       0        1.22509396076202         41.670581817627     4.5693602092729E-10                254022.5                101325.5        288.124206542969      0.0999588817358017    0.000750657261961406                       0 
      -1.78489244622311                       0        1.22509396076202         41.670581817627    4.63161085352069E-10                254022.5                101325.5        288.124206542969      0.0999588817358017    0.000750657253444277                       0 
       -1.7823911955978                       0        1.22509396076202         41.670581817627    4.69386149776848E-10                254022.5                101325.5        288.124206542969      0.0999588817358017    0.000750657244927147                       0 
      -1.77988994497249                       0        1.22509396076202         41.670581817627    4.75611214201627E-10                254022.5                101325.5        288.124206542969      0.0999588817358017    0.000750657236410018                       0 
      -1.77738869434717                       0        1.22509396076202         41.670581817627    4.81836278626406E-10                254022.5                101325.5        288.124206542969      0.0999588817358017    0.000750657227892888                       0 
      -1.77488744372186                       0        1.22509396076202         41.670581817627    4.88061343051185E-10                254022.5                101325.5        288.124206542969      0.0999588817358017    0.000750657219375759                       0 
      -1.77238619309655                       0        1.22509396076202         41.670581817627    4.94286407475964E-10                254022.5                101325.5        288.124206542969      0.0999588817358017    0.000750657210858629                       0 
      -1.76988494247124                       0        1.22509396076202         41.670581817627    5.00511471900743E-10                254022.5                101325.5        288.124206542969      0.0999588817358017      0.0007506572023415                       0 
      -1.76738369184592                       0        1.22509396076202         41.670581817627    5.06736536325522E-10                254022.5                101325.5        288.124206542969      0.0999588817358017     0.00075065719382437                       0 
      -1.76488244122061                       0        1.22509396076202         41.670581817627    5.12961600750301E-10                254022.5                101325.5        288.124206542969      0.0999588817358017    0.000750657185307241                       0 
       -1.7623811905953                       0        1.22509396076202         41.670581817627    5.19186665175079E-10                254022.5                101325.5        288.124206542969      0.0999588817358017    0.000750657176790111                       0 
      -1.75987993996998                       0        1.22509396076202         41.670581817627    5.25411729599859E-10                254022.5                101325.5        288.124206542969      0.0999588817358017    0.000750657168272982                       0 
      -1.75737868934467                       0        1.22509396076202         41.670581817627    5.31636794024638E-10                254022.5                101325.5        288.124206542969      0.0999588817358017    0.000750657159755852                       0 
      -1.75487743871936                       0        1.22509396076202         41.670581817627    5.37861858449416E-10                254022.5                101325.5        288.124206542969      0.0999588817358017    0.000750657151238723                       0 
      -1.75237618809405                       0        1.22509396076202         41.670581817627    5.44086922874196E-10                254022.5                101325.5        288.124206542969      0.0999588817358017    0.000750657142721593                       0 
      -1.74987493746873                       0        1.22509396076202         41.670581817627    5.50311987298974E-10                254022.5                101325.5        288.124206542969      0.0999588817358017    0.000750657134204464                       0 
      -1.74737368684342                       0        1.22509396076202         41.670581817627    5.56537051723753E-10                254022.5                101325.5        288.124206542969      0.0999588817358017    0.000750657125687334                       0 
      -1.74487243621811                       0        1.22509396076202         41.670581817627    5.62762116148532E-10                254022.5                101325.5        288.124206542969      0.0999588817358017    0.000750657117170205                       0 
       -1.7423711855928                       0        1.22509396076202         41.670581817627    5.69234748766385E-10                254022.5                101325.5        288.124206542969      0.0999588817358017    0.000750657110036487                       0 
      -1.73986993496748                       0        1.22509396076202         41.670581817627    5.75967873704826E-10                254022.5                101325.5        288.124206542969      0.0999588817358017    0.000750657104358401                       0 
      -1.73736868434217                       0        1.22509396076202         41.670581817627    5.82700998643267E-10                254022.5                101325.5        288.124206542969      0.0999588817358017    0.000750657098680314                       0 
      -1.73486743371686                       0        1.22509396076202         41.670581817627    5.89434123581707E-10                254022.5                101325.5        288.124206542969      0.0999588817358017    0.000750657093002228                       0 
      -1.73236618309155                       0        1.22509396076202         41.670581817627    5.96167248520148E-10                254022.5                101325.5        288.124206542969      0.0999588817358017    0.000750657087324142                       0 
      -1.72986493246623                       0        1.22509396076202         41.670581817627    6.02900373458588E-10                254022.5                101325.5        288.124206542969      0.0999588817358017    0.000750657081646055                       0 
      -1.72736368184092                       0        1.22509396076202         41.670581817627    6.09633498397028E-10                254022.5                101325.5        288.124206542969      0.0999588817358017    0.000750657075967969                       0 
      -1.72486243121561                       0        1.22509396076202         41.670581817627    6.16366623335469E-10                254022.5                101325.5        288.124206542969      0.0999588817358017    0.000750657070289883                       0 
       -1.7223611805903                       0        1.22509396076202         41.670581817627     6.2309974827391E-10                254022.5                101325.5        288.124206542969      0.0999588817358017    0.000750657064611796                       0 