VARIABLES = "x"
 "y"
 "Density"
 "Momentum_x"
 "Momentum_y"
 "Energy"
 "Pressure"
 "Temperature"
 "Mach"
 "C<sub>p</sub>"
 "Roe_Dissipation"
ZONE
DT=(DOUBLE,DOUBLE,DOUBLE,DOUBLE,DOUBLE,DOUBLE,DOUBLE,DOUBLE,DOUBLE,DOUBLE,DOUBLE)
                     -1                    1.25        1.22498500347137        42.0368118286133   -8.16761569310838E-09                254003.5          101312.8984375        288.114013671875       0.100848197937012     -0.0170697309076786                       0 
                     -1         1.2474974974975        1.22498500347137        42.0368118286133   -8.42195960436075E-09                254003.5          101312.8984375        288.114013671875       0.100848197937012     -0.0170697309076786                       0 
                     -1        1.24499499499499        1.22498500347137        42.0368118286133   -8.67630351561312E-09                254003.5          101312.8984375        288.114013671875       0.100848197937012     -0.0170697309076786                       0 
                     -1        1.24249249249249        1.22498500347137        42.0368118286133   -8.93064742686549E-09                254003.5          101312.8984375        288.114013671875       0.100848197937012     -0.0170697309076786                       0 
                     -1        1.23998998998999        1.22498500347137        42.0368118286133   -9.18499133811786E-09                254003.5          101312.8984375        288.114013671875       0.100848197937012     -0.0170697309076786                       0 
                     -1        1.23748748748749        1.22498500347137        42.0368118286133   -9.43933524937023E-09                254003.5          101312.8984375        288.114013671875       0.100848197937012     -0.0170697309076786                       0 
                     -1        1.23498498498498        1.22498500347137        42.0368118286133    -9.6936791606226E-09                254003.5          101312.8984375        288.114013671875       0.100848197937012     -0.0170697309076786                       0 
                     -1        1.23248248248248        1.22498500347137        42.0368118286133    -9.9480229893018E-09                254003.5          101312.8984375        288.114013671875       0.100848197937012     -0.0170697309076786                       0 
                     -1        1.22997997997998        1.22498500347137        42.0368118286133   -1.02023669005542E-08                254003.5          101312.8984375        288.114013671875       0.100848197937012     -0.0170697309076786                       0 
                     -1        1.22747747747748        1.22498500347137        42.0368118286133   -1.04567108118065E-08                254003.5          101312.8984375        288.114013671875       0.100848197937012     -0.0170697309076786                       0 
                     -1        1.22497497497497        1.22498500347137        42.0368118286133   -1.07110547230589E-08                254003.5          101312.8984375        288.114013671875       0.100848197937012     -0.0170697309076786                       0 
                     -1        1.22247247247247        1.22498500347137        42.0368118286133   -1.09653986343113E-08                254003.5          101312.8984375        288.114013671875       0.100848197937012     -0.0170697309076786                       0 
                     -1        1.21996996996997        1.22498500347137        42.0368118286133   -1.12197425455636E-08                254003.5          101312.8984375        288.114013671875       0.100848197937012     -0.0170697309076786                       0 
                     -1        1.21746746746747        1.22498500347137        42.0368118286133   -1.14591304623907E-08                254003.5          101312.8984375        288.114013671875       0.100848197937012     -0.0170697309076786                       0 
                     -1        1.21496496496496        1.22498500347137        42.0368118286133   -1.16712559869348E-08                254003.5          101312.8984375        288.114013671875       0.100848197937012     -0.0170697309076786                       0 
                     -1        1.21246246246246        1.22498500347137        42.0368118286133   -1.18833815114789E-08                254003.5          101312.8984375        288.114013671875       0.100848197937012     -0.0170697309076786                       0 
                     -1        1.20995995995996        1.22498500347137        42.0368118286133    -1.2095507036023E-08                254003.5          101312.8984375        288.114013671875       0.100848197937012     -0.0170697309076786                       0 
                     -1        1.20745745745746        1.22498500347137        42.0368118286133   -1.23076325605671E-08                254003.5          101312.8984375        288.114013671875       0.100848197937012     -0.0170697309076786                       0 
                     -1        1.20495495495495        1.22498500347137        42.0368118286133   -1.25197580851112E-08                254003.5          101312.8984375        288.114013671875       0.100848197937012     -0.0170697309076786                       0 
                     -1        1.20245245245245        1.22498500347137        42.0368118286133   -1.27318835445034E-08                254003.5          101312.8984375        288.114013671875       0.100848197937012     -0.0170697309076786                       0 
                     -1        1.19994994994995        1.22498500347137        42.0368118286133   -1.29440090690475E-08                254003.5          101312.8984375        288.114013671875       0.100848197937012     -0.0170697309076786                       0 
                     -1        1.19744744744745        1.22498500347137        42.0368118286133   -1.31561345935916E-08                254003.5          101312.8984375        288.114013671875       0.100848197937012     -0.0170697309076786                       0 
                     -1        1.19494494494494        1.22498500347137        42.0368118286133   -1.33682601181357E-08                254003.5          101312.8984375        288.114013671875       0.100848197937012     -0.0170697309076786                       0 
                     -1        1.19244244244244        1.22498500347137        42.0368118286133   -1.35803856426798E-08                254003.5          101312.8984375        288.114013671875       0.100848197937012     -0.0170697309076786                       0 
                     -1        1.18993993993994        1.22498500347137        42.0368118286133   -1.37925111672239E-08                254003.5          101312.8984375        288.114013671875       0.100848197937012     -0.0170697309076786                       0 
                     -1        1.18743743743744        1.22498500347137        42.0368118286133    -1.4004636691768E-08                254003.5          101312.8984375        288.114013671875       0.100848197937012     -0.0170697309076786                       0 
                     -1        1.18493493493493        1.22498500347137        42.0368118286133   -1.41766891123845E-08                254003.5          101312.8984375        288.114013671875       0.100848197937012     -0.0170697309076786                       0 
                     -1        1.18243243243243        1.22498500347137        42.0368118286133   -1.43322888509896E-08                254003.5          101312.8984375        288.114013671875       0.100848197937012     -0.0170697309076786                       0 
                     -1        1.17992992992993        1.22498500347137        42.0368118286133   -1.44878885895946E-08                254003.5          101312.8984375        288.114013671875       0.100848197937012     -0.0170697309076786                       0 
                     -1        1.17742742742743        1.22498500347137        42.0368118286133   -1.46434883281997E-08                254003.5          101312.8984375        288.114013671875       0.100848197937012     -0.0170697309076786                       0 
                     -1        1.17492492492492        1.22498500347137        42.0368118286133   -1.47990880668047E-08                254003.5          101312.8984375        288.114013671875       0.100848197937012     -0.0170697309076786                       0 
                     -1        1.17242242242242        1.22498500347137        42.0368118286133   -1.49546878054098E-08                254003.5          101312.8984375        288.114013671875       0.100848197937012     -0.0170697309076786                       0 
                     -1        1.16991991991992        1.22498500347137        42.0368118286133   -1.51102875011435E-08                254003.5          101312.8984375        288.114013671875       0.100848197937012     -0.0170697309076786                       0 
                     -1        1.16741741741742        1.22498500347137        42.0368118286133   -1.52658872397486E-08                254003.5          101312.8984375        288.114013671875       0.100848197937012     -0.0170697309076786                       0 
                     -1        1.16491491491491        1.22498500347137        42.0368118286133   -1.54214869783536E-08                254003.5          101312.8984375        288.114013671875       0.100848197937012     -0.0170697309076786                       0 
                     -1        1.16241241241241        1.22498500347137        42.0368118286133   -1.55770867169587E-08                254003.5          101312.8984375        288.114013671875       0.100848197937012     -0.0170697309076786                       0 
                     -1        1.15990990990991        1.22498500347137        42.0368118286133   -1.57326864555637E-08                254003.5          101312.8984375        288.114013671875       0.100848197937012     -0.0170697309076786                       0 
                     -1        1.15740740740741        1.22498500347137        42.0368118286133   -1.58882861941688E-08                254003.5          101312.8984375        288.114013671875       0.100848197937012     -0.0170697309076786                       0 
                     -1         1.1549049049049        1.22498500347137        42.0368118286133    -1.6039753070821E-08                254003.5          101312.8984375        288.114013671875       0.100848197937012     -0.0170697309076786                       0 
                     -1         1.1524024024024        1.22498500347137        42.0368118286133   -1.61299470346029E-08                254003.5          101312.8984375        288.114013671875       0.100848197937012     -0.0170697309076786                       0 
                     -1         1.1498998998999        1.22498500347137        42.0368118286133   -1.62201409983847E-08                254003.5          101312.8984375        288.114013671875       0.100848197937012     -0.0170697309076786                       0 
                     -1         1.1473973973974        1.22498500347137        42.0368118286133   -1.63103349621666E-08                254003.5          101312.8984375        288.114013671875       0.100848197937012     -0.0170697309076786                       0 
                     -1        1.14489489489489        1.22498500347137        42.0368118286133   -1.64005289259484E-08                254003.5          101312.8984375        288.114013671875       0.100848197937012     -0.0170697309076786                       0 
                     -1        1.14239239239239        1.22498500347137        42.0368118286133   -1.64907228897303E-08                254003.5          101312.8984375        288.114013671875       0.100848197937012     -0.0170697309076786                       0 
                     -1        1.13988988988989        1.22498500347137        42.0368118286133   -1.65809168535122E-08                254003.5          101312.8984375        288.114013671875       0.100848197937012     -0.0170697309076786                       0 
                     -1        1.13738738738739        1.22498500347137        42.0368118286133   -1.66711107939377E-08                254003.5          101312.8984375        288.114013671875       0.100848197937012     -0.0170697309076786                       0 
                     -1        1.13488488488488        1.22498500347137        42.0368118286133   -1.67613047577196E-08                254003.5          101312.8984375        288.114013671875       0.100848197937012     -0.0170697309076786                       0 
                     -1        1.13238238238238        1.22498500347137        42.0368118286133   -1.68514987215014E-08                254003.5          101312.8984375        288.114013671875       0.100848197937012     -0.0170697309076786                       0 
                     -1        1.12987987987988        1.22498500347137        42.0368118286133   -1.69416926852833E-08                254003.5          101312.8984375        288.114013671875       0.100848197937012     -0.0170697309076786                       0 
                     -1        1.12737737737738        1.22498500347137        42.0368118286133   -1.70318866490652E-08                254003.5          101312.8984375        288.114013671875       0.100848197937012     -0.0170697309076786                       0 
                     -1        1.12487487487487        1.22498500347137        42.0368118286133    -1.7122080612847E-08                254003.5          101312.8984375        288.114013671875       0.100848197937012     -0.0170697309076786                       0 
                     -1        1.12237237237237        1.22498500347137        42.0368118286133   -1.71887500115884E-08                254003.5          101312.8984375        288.114013671875       0.100848197937012     -0.0170697309076786                       0 
                     -1        1.11986986986987        1.22498500347137        42.0368118286133   -1.72226411651551E-08                254003.5          101312.8984375        288.114013671875       0.100848197937012     -0.0170697309076786                       0 
                     -1        1.11736736736737        1.22498500347137        42.0368118286133   -1.72565323187217E-08                254003.5          101312.8984375        288.114013671875       0.100848197937012     -0.0170697309076786                       0 
                     -1        1.11486486486486        1.22498500347137        42.0368118286133   -1.72904234722883E-08                254003.5          101312.8984375        288.114013671875       0.100848197937012     -0.0170697309076786                       0 
                     -1        1.11236236236236        1.22498500347137        42.0368118286133   -1.73243146258549E-08                254003.5          101312.8984375        288.114013671875       0.100848197937012     -0.0170697309076786                       0 
                     -1        1.10985985985986        1.22498500347137        42.0368118286133   -1.73582057794216E-08                254003.5          101312.8984375        288.114013671875       0.100848197937012     -0.0170697309076786                       0 
                     -1        1.10735735735736        1.22498500347137        42.0368118286133   -1.73920969342321E-08                254003.5          101312.8984375        288.114013671875       0.100848197937012     -0.0170697309076786                       0 
                     -1        1.10485485485485        1.22498500347137        42.0368118286133   -1.74259880877988E-08                254003.5          101312.8984375        288.114013671875       0.100848197937012     -0.0170697309076786                       0 
                     -1        1.10235235235235        1.22498500347137        42.0368118286133   -1.74598792413654E-08                254003.5          101312.8984375        288.114013671875       0.100848197937012     -0.0170697309076786                       0 
                     -1        1.09984984984985        1.22498500347137        42.0368118286133    -1.7493770394932E-08                254003.5          101312.8984375        288.114013671875       0.100848197937012     -0.0170697309076786                       0 
                     -1        1.09734734734735        1.22498500347137        42.0368118286133   -1.75276615484986E-08                254003.5          101312.8984375        288.114013671875       0.100848197937012     -0.0170697309076786                       0 
                     -1        1.09484484484484        1.22498500347137        42.0368118286133   -1.75615527020653E-08                254003.5          101312.8984375        288.114013671875       0.100848197937012     -0.0170697309076786                       0 
                     -1        1.09234234234234        1.22498500347137        42.0368118286133   -1.75954438556319E-08                254003.5          101312.8984375        288.114013671875       0.100848197937012     -0.0170697309076786                       0 
                     -1        1.08983983983984        1.22498500347137        42.0368118286133   -1.75969249054457E-08                254003.5          101312.8984375        288.114013671875       0.100848197937012     -0.0170697309076786                       0 
                     -1        1.08733733733734        1.22498500347137        42.0368118286133   -1.75888381548583E-08                254003.5          101312.8984375        288.114013671875       0.100848197937012     -0.0170697309076786                       0 
                     -1        1.08483483483483        1.22498500347137        42.0368118286133    -1.7580751404271E-08                254003.5          101312.8984375        288.114013671875       0.100848197937012     -0.0170697309076786                       0 
                     -1        1.08233233233233        1.22498500347137        42.0368118286133   -1.75726646536836E-08                254003.5          101312.8984375        288.114013671875       0.100848197937012     -0.0170697309076786                       0 
                     -1        1.07982982982983        1.22498500347137        42.0368118286133   -1.75645779030963E-08                254003.5          101312.8984375        288.114013671875       0.100848197937012     -0.0170697309076786                       0 
                     -1        1.07732732732733        1.22498500347137        42.0368118286133   -1.75564911525089E-08                254003.5          101312.8984375        288.114013671875       0.100848197937012     -0.0170697309076786                       0 
                     -1        1.07482482482482        1.22498500347137        42.0368118286133   -1.75484044266891E-08                254003.5          101312.8984375        288.114013671875       0.100848197937012     -0.0170697309076786                       0 
                     -1        1.07232232232232        1.22498500347137        42.0368118286133   -1.75403176761017E-08                254003.5          101312.8984375        288.114013671875       0.100848197937012     -0.0170697309076786                       0 
                     -1        1.06981981981982        1.22498500347137        42.0368118286133   -1.75322309255144E-08                254003.5          101312.8984375        288.114013671875       0.100848197937012     -0.0170697309076786                       0 
                     -1        1.06731731731732        1.22498500347137        42.0368118286133    -1.7524144174927E-08                254003.5          101312.8984375        288.114013671875       0.100848197937012     -0.0170697309076786                       0 
                     -1        1.06481481481481        1.22498500347137        42.0368118286133   -1.75160574243397E-08                254003.5          101312.8984375        288.114013671875       0.100848197937012     -0.0170697309076786                       0 
                     -1        1.06231231231231        1.22498500347137        42.0368118286133   -1.75079706737523E-08                254003.5          101312.8984375        288.114013671875       0.100848197937012     -0.0170697309076786                       0 
                     -1        1.05980980980981        1.22498500347137        42.0368118286133   -1.74969231964822E-08                254003.5          101312.8984375        288.114013671875       0.100848197937012     -0.0170697309076786                       0 
                     -1        1.05730730730731        1.22498500347137        42.0368118286133   -1.74654789721648E-08                254003.5          101312.8984375        288.114013671875       0.100848197937012     -0.0170697309076786                       0 
                     -1         1.0548048048048        1.22498500347137        42.0368118286133   -1.74340347478473E-08                254003.5          101312.8984375        288.114013671875       0.100848197937012     -0.0170697309076786                       0 
                     -1         1.0523023023023        1.22498500347137        42.0368118286133   -1.74025905235299E-08                254003.5          101312.8984375        288.114013671875       0.100848197937012     -0.0170697309076786                       0 
                     -1         1.0497997997998        1.22498500347137        42.0368118286133   -1.73711462992124E-08                254003.5          101312.8984375        288.114013671875       0.100848197937012     -0.0170697309076786                       0 
                     -1         1.0472972972973        1.22498500347137        42.0368118286133    -1.7339702074895E-08                254003.5          101312.8984375        288.114013671875       0.100848197937012     -0.0170697309076786                       0 
                     -1        1.04479479479479        1.22498500347137        42.0368118286133   -1.73082578505775E-08                254003.5          101312.8984375        288.114013671875       0.100848197937012     -0.0170697309076786                       0 
                     -1        1.04229229229229        1.22498500347137        42.0368118286133    -1.7276813673049E-08                254003.5          101312.8984375        288.114013671875       0.100848197937012     -0.0170697309076786                       0 
                     -1        1.03978978978979        1.22498500347137        42.0368118286133   -1.72453694487316E-08                254003.5          101312.8984375        288.114013671875       0.100848197937012     -0.0170697309076786                       0 
                     -1        1.03728728728729        1.22498500347137        42.0368118286133   -1.72139252244141E-08                254003.5          101312.8984375        288.114013671875       0.100848197937012     -0.0170697309076786                       0 
                     -1        1.03478478478478        1.22498500347137        42.0368118286133   -1.71824810000967E-08                254003.5          101312.8984375        288.114013671875       0.100848197937012     -0.0170697309076786                       0 
                     -1        1.03228228228228        1.22498500347137        42.0368118286133   -1.71510367757792E-08                254003.5          101312.8984375        288.114013671875       0.100848197937012     -0.0170697309076786                       0 
                     -1        1.02977977977978        1.22498500347137        42.0368118286133   -1.71195925514618E-08                254003.5          101312.8984375        288.114013671875       0.100848197937012     -0.0170697309076786                       0 
                     -1        1.02727727727728        1.22498500347137        42.0368118286133   -1.70836372728422E-08                254003.5          101312.8984375        288.114013671875       0.100848197937012     -0.0170697309076786                       0 
                     -1        1.02477477477477        1.22498500347137        42.0368118286133   -1.70428147570288E-08                254003.5          101312.8984375        288.114013671875       0.100848197937012     -0.0170697309076786                       0 
                     -1        1.02227227227227        1.22498500347137        42.0368118286133   -1.70019922412155E-08                254003.5          101312.8984375        288.114013671875       0.100848197937012     -0.0170697309076786                       0 
                     -1        1.01976976976977        1.22498500347137        42.0368118286133   -1.69611697254021E-08                254003.5          101312.8984375        288.114013671875       0.100848197937012     -0.0170697309076786                       0 
                     -1        1.01726726726727        1.22498500347137        42.0368118286133   -1.69203472095887E-08                254003.5          101312.8984375        288.114013671875       0.100848197937012     -0.0170697309076786                       0 
                     -1        1.01476476476476        1.22498500347137        42.0368118286133   -1.68795246937753E-08                254003.5          101312.8984375        288.114013671875       0.100848197937012     -0.0170697309076786                       0 
                     -1        1.01226226226226        1.22498500347137        42.0368118286133   -1.68387022403586E-08                254003.5          101312.8984375        288.114013671875       0.100848197937012     -0.0170697309076786                       0 
                     -1        1.00975975975976        1.22498500347137        42.0368118286133   -1.67978797245452E-08                254003.5          101312.8984375        288.114013671875       0.100848197937012     -0.0170697309076786                       0 
                     -1        1.00725725725726        1.22498500347137        42.0368118286133   -1.67570572087318E-08                254003.5          101312.8984375        288.114013671875       0.100848197937012     -0.0170697309076786                       0 
                     -1        1.00475475475475        1.22498500347137        42.0368118286133   -1.67162346929185E-08                254003.5          101312.8984375        288.114013671875       0.100848197937012     -0.0170697309076786                       0 
                     -1        1.00225225225225        1.22498500347137        42.0368118286133   -1.66754121771051E-08                254003.5          101312.8984375        288.114013671875       0.100848197937012     -0.0170697309076786                       0 
                     -1        0.99974974974975        1.22498500347137        42.0368118286133   -1.66345896612917E-08                254003.5          101312.8984375        288.114013671875       0.100848197937012     -0.0170697309076786                       0 
                     -1       0.997247247247247        1.22498500347137        42.0368118286133   -1.65937671454783E-08                254003.5          101312.8984375        288.114013671875       0.100848197937012     -0.0170697309076786                       0 
                     -1       0.994744744744745        1.22498500347137        42.0368118286133   -1.65527284558093E-08                254003.5          101312.8984375        288.114013671875       0.100848197937012     -0.0170697309076786                       0 
                     -1       0.992242242242242        1.22498500347137        42.0368118286133   -1.65116471824261E-08                254003.5          101312.8984375        288.114013671875       0.100848197937012     -0.0170697309076786                       0 
                     -1        0.98973973973974        1.22498500347137        42.0368118286133   -1.64705659090429E-08                254003.5          101312.8984375        288.114013671875       0.100848197937012     -0.0170697309076786                       0 
                     -1       0.987237237237237        1.22498500347137        42.0368118286133   -1.64294846356598E-08                254003.5          101312.8984375        288.114013671875       0.100848197937012     -0.0170697309076786                       0 
                     -1       0.984734734734735        1.22498500347137        42.0368118286133   -1.63884033622766E-08                254003.5          101312.8984375        288.114013671875       0.100848197937012     -0.0170697309076786                       0 
                     -1       0.982232232232232        1.22498500347137        42.0368118286133   -1.63473220888934E-08                254003.5          101312.8984375        288.114013671875       0.100848197937012     -0.0170697309076786                       0 
                     -1        0.97972972972973        1.22498500347137        42.0368118286133   -1.63062408859518E-08                254003.5          101312.8984375        288.114013671875       0.100848197937012     -0.0170697309076786                       0 
                     -1       0.977227227227227        1.22498500347137        42.0368118286133   -1.62651596125686E-08                254003.5          101312.8984375        288.114013671875       0.100848197937012     -0.0170697309076786                       0 
                     -1       0.974724724724725        1.22498500347137        42.0368118286133   -1.62240783391854E-08                254003.5          101312.8984375        288.114013671875       0.100848197937012     -0.0170697309076786                       0 
                     -1       0.972222222222222        1.22498500347137        42.0368118286133   -1.61829970658022E-08                254003.5          101312.8984375        288.114013671875       0.100848197937012     -0.0170697309076786                       0 