 VARIABLES = "X",  "Y"
 ZONE N=        4800 , E=        4661 , F=FEPOINT, ET=QUADRILATERAL
        0.5000000000        1.0000000000
        0.5000000000        0.9661016949
        0.5379746835        0.9661016949
        0.5379746835        1.0000000000
        0.5000000000        0.9322033898
        0.5379746835        0.9322033898
        0.5000000000        0.8983050847
        0.5379746835        0.8983050847
        0.5000000000        0.8644067797
        0.5379746835        0.8644067797
        0.5000000000        0.8305084746
        0.5379746835        0.8305084746
        0.5000000000        0.7966101695
        0.5379746835        0.7966101695
        0.5000000000        0.7627118644
        0.5379746835        0.7627118644
        0.5000000000        0.7288135593
        0.5379746835        0.7288135593
        0.5000000000        0.6949152542
        0.5379746835        0.6949152542
        0.5000000000        0.6610169492
        0.5379746835        0.6610169492
        0.5000000000        0.6271186441
        0.5379746835        0.6271186441
        0.5000000000        0.5932203390
        0.5379746835        0.5932203390
        0.5000000000        0.5593220339
        0.5379746835        0.5593220339
        0.5000000000        0.5254237288
        0.5379746835        0.5254237288
        0.5000000000        0.4915254237
        0.5379746835        0.4915254237
        0.5000000000        0.4576271186
        0.5379746835        0.4576271186
        0.5000000000        0.4237288136
        0.5379746835        0.4237288136
        0.5000000000        0.3898305085
        0.5379746835        0.3898305085
        0.5000000000        0.3559322034
        0.5379746835        0.3559322034
        0.5000000000        0.3220338983
        0.5379746835        0.3220338983
        0.5000000000        0.2881355932
        0.5379746835        0.2881355932
        0.5000000000        0.2542372881
        0.5379746835        0.2542372881
        0.5000000000        0.2203389831
        0.5379746835        0.2203389831
        0.5000000000        0.1864406780
        0.5379746835        0.1864406780
        0.5000000000        0.1525423729
        0.5379746835        0.1525423729
        0.5000000000        0.1186440678
        0.5379746835        0.1186440678
        0.5000000000        0.0847457627
        0.5379746835        0.0847457627
        0.5000000000        0.0508474576
        0.5379746835        0.0508474576
        0.5000000000        0.0169491525
        0.5379746835        0.0169491525
        0.5000000000       -0.0169491525
        0.5379746835       -0.0169491525
        0.5000000000       -0.0508474576
        0.5379746835       -0.0508474576
        0.5000000000       -0.0847457627
        0.5379746835       -0.0847457627
        0.5000000000       -0.1186440678
        0.5379746835       -0.1186440678
        0.5000000000       -0.1525423729
        0.5379746835       -0.1525423729
        0.5000000000       -0.1864406780
        0.5379746835       -0.1864406780
        0.5000000000       -0.2203389831
        0.5379746835       -0.2203389831
        0.5000000000       -0.2542372881
        0.5379746835       -0.2542372881
        0.5000000000       -0.2881355932
        0.5379746835       -0.2881355932
        0.5000000000       -0.3220338983
        0.5379746835       -0.3220338983
        0.5000000000       -0.3559322034
        0.5379746835       -0.3559322034
        0.5000000000       -0.3898305085
        0.5379746835       -0.3898305085
        0.5000000000       -0.4237288136
        0.5379746835       -0.4237288136
        0.5000000000       -0.4576271186
        0.5379746835       -0.4576271186
        0.5000000000       -0.4915254237
        0.5379746835       -0.4915254237
        0.5000000000       -0.5254237288
        0.5379746835       -0.5254237288
        0.5000000000       -0.5593220339
        0.5379746835       -0.5593220339
        0.5000000000       -0.5932203390
        0.5379746835       -0.5932203390
        0.5000000000       -0.6271186441
        0.5379746835       -0.6271186441
        0.5000000000       -0.6610169492
        0.5379746835       -0.6610169492
        0.5000000000       -0.6949152542
        0.5379746835       -0.6949152542
        0.5000000000       -0.7288135593
        0.5379746835       -0.7288135593
        0.5000000000       -0.7627118644
        0.5379746835       -0.7627118644
        0.5000000000       -0.7966101695
        0.5379746835       -0.7966101695
        0.5000000000       -0.8305084746
        0.5379746835       -0.8305084746
        0.5000000000       -0.8644067797
        0.5379746835       -0.8644067797
        0.5000000000       -0.8983050847
        0.5379746835       -0.8983050847
        0.5000000000       -0.9322033898
        0.5379746835       -0.9322033898
        0.5000000000       -0.9661016949
        0.5379746835       -0.9661016949
        0.5759493671        0.9661016949
        0.5759493671        1.0000000000
        0.5759493671        0.9322033898
        0.5759493671        0.8983050847
        0.5759493671        0.8644067797
        0.5759493671        0.8305084746
        0.5759493671        0.7966101695
        0.5759493671        0.7627118644
        0.5759493671        0.7288135593
        0.5759493671        0.6949152542
        0.5759493671        0.6610169492
        0.5759493671        0.6271186441
        0.5759493671        0.5932203390
        0.5759493671        0.5593220339
        0.5759493671        0.5254237288
        0.5759493671        0.4915254237
        0.5759493671        0.4576271186
        0.5759493671        0.4237288136
        0.5759493671        0.3898305085
        0.5759493671        0.3559322034
        0.5759493671        0.3220338983
        0.5759493671        0.2881355932
        0.5759493671        0.2542372881
        0.5759493671        0.2203389831
        0.5759493671        0.1864406780
        0.5759493671        0.1525423729
        0.5759493671        0.1186440678
        0.5759493671        0.0847457627
        0.5759493671        0.0508474576
        0.5759493671        0.0169491525
        0.5759493671       -0.0169491525
        0.5759493671       -0.0508474576
        0.5759493671       -0.0847457627
        0.5759493671       -0.1186440678
        0.5759493671       -0.1525423729
        0.5759493671       -0.1864406780
        0.5759493671       -0.2203389831
        0.5759493671       -0.2542372881
        0.5759493671       -0.2881355932
        0.5759493671       -0.3220338983
        0.5759493671       -0.3559322034
        0.5759493671       -0.3898305085
        0.5759493671       -0.4237288136
        0.5759493671       -0.4576271186
        0.5759493671       -0.4915254237
        0.5759493671       -0.5254237288
        0.5759493671       -0.5593220339
        0.5759493671       -0.5932203390
        0.5759493671       -0.6271186441
        0.5759493671       -0.6610169492
        0.5759493671       -0.6949152542
        0.5759493671       -0.7288135593
        0.5759493671       -0.7627118644
        0.5759493671       -0.7966101695
        0.5759493671       -0.8305084746
        0.5759493671       -0.8644067797
        0.5759493671       -0.8983050847
        0.5759493671       -0.9322033898
        0.5759493671       -0.9661016949
        0.6139240506        0.9661016949
        0.6139240506        1.0000000000
        0.6139240506        0.9322033898
        0.6139240506        0.8983050847
        0.6139240506        0.8644067797
        0.6139240506        0.8305084746
        0.6139240506        0.7966101695
        0.6139240506        0.7627118644
        0.6139240506        0.7288135593
        0.6139240506        0.6949152542
        0.6139240506        0.6610169492
        0.6139240506        0.6271186441
        0.6139240506        0.5932203390
        0.6139240506        0.5593220339
        0.6139240506        0.5254237288
        0.6139240506        0.4915254237
        0.6139240506        0.4576271186
        0.6139240506        0.4237288136
        0.6139240506        0.3898305085
        0.6139240506        0.3559322034
        0.6139240506        0.3220338983
        0.6139240506        0.2881355932
        0.6139240506        0.2542372881
        0.6139240506        0.2203389831
        0.6139240506        0.1864406780
        0.6139240506        0.1525423729
        0.6139240506        0.1186440678
        0.6139240506        0.0847457627
        0.6139240506        0.0508474576
        0.6139240506        0.0169491525
        0.6139240506       -0.0169491525
        0.6139240506       -0.0508474576
        0.6139240506       -0.0847457627
        0.6139240506       -0.1186440678
        0.6139240506       -0.1525423729
        0.6139240506       -0.1864406780
        0.6139240506       -0.2203389831
        0.6139240506       -0.2542372881
        0.6139240506       -0.2881355932
        0.6139240506       -0.3220338983
        0.6139240506       -0.3559322034
        0.6139240506       -0.3898305085
        0.6139240506       -0.4237288136
        0.6139240506       -0.4576271186
        0.6139240506       -0.4915254237
        0.6139240506       -0.5254237288
        0.6139240506       -0.5593220339
        0.6139240506       -0.5932203390
        0.6139240506       -0.6271186441
        0.6139240506       -0.6610169492
        0.6139240506       -0.6949152542
        0.6139240506       -0.7288135593
        0.6139240506       -0.7627118644
        0.6139240506       -0.7966101695
        0.6139240506       -0.8305084746
        0.6139240506       -0.8644067797
        0.6139240506       -0.8983050847
        0.6139240506       -0.9322033898
        0.6139240506       -0.9661016949
        0.6518987342        0.9661016949
        0.6518987342        1.0000000000
        0.6518987342        0.9322033898
        0.6518987342        0.8983050847
        0.6518987342        0.8644067797
        0.6518987342        0.8305084746
        0.6518987342        0.7966101695
        0.6518987342        0.7627118644
        0.6518987342        0.7288135593
        0.6518987342        0.6949152542
        0.6518987342        0.6610169492
        0.6518987342        0.6271186441
        0.6518987342        0.5932203390
        0.6518987342        0.5593220339
        0.6518987342        0.5254237288
        0.6518987342        0.4915254237
        0.6518987342        0.4576271186
        0.6518987342        0.4237288136
        0.6518987342        0.3898305085
        0.6518987342        0.3559322034
        0.6518987342        0.3220338983
        0.6518987342        0.2881355932
        0.6518987342        0.2542372881
        0.6518987342        0.2203389831
        0.6518987342        0.1864406780
        0.6518987342        0.1525423729
        0.6518987342        0.1186440678
        0.6518987342        0.0847457627
        0.6518987342        0.0508474576
        0.6518987342        0.0169491525
        0.6518987342       -0.0169491525
        0.6518987342       -0.0508474576
        0.6518987342       -0.0847457627
        0.6518987342       -0.1186440678
        0.6518987342       -0.1525423729
        0.6518987342       -0.1864406780
        0.6518987342       -0.2203389831
        0.6518987342       -0.2542372881
        0.6518987342       -0.2881355932
        0.6518987342       -0.3220338983
        0.6518987342       -0.3559322034
        0.6518987342       -0.3898305085
        0.6518987342       -0.4237288136
        0.6518987342       -0.4576271186
        0.6518987342       -0.4915254237
        0.6518987342       -0.5254237288
        0.6518987342       -0.5593220339
        0.6518987342       -0.5932203390
        0.6518987342       -0.6271186441
        0.6518987342       -0.6610169492
        0.6518987342       -0.6949152542
        0.6518987342       -0.7288135593
        0.6518987342       -0.7627118644
        0.6518987342       -0.7966101695
        0.6518987342       -0.8305084746
        0.6518987342       -0.8644067797
        0.6518987342       -0.8983050847
        0.6518987342       -0.9322033898
        0.6518987342       -0.9661016949
        0.6898734177        0.9661016949
        0.6898734177        1.0000000000
        0.6898734177        0.9322033898
        0.6898734177        0.8983050847
        0.6898734177        0.8644067797
        0.6898734177        0.8305084746
        0.6898734177        0.7966101695
        0.6898734177        0.7627118644
        0.6898734177        0.7288135593
        0.6898734177        0.6949152542
        0.6898734177        0.6610169492
        0.6898734177        0.6271186441
        0.6898734177        0.5932203390
        0.6898734177        0.5593220339
        0.6898734177        0.5254237288
        0.6898734177        0.4915254237
        0.6898734177        0.4576271186
        0.6898734177        0.4237288136
        0.6898734177        0.3898305085
        0.6898734177        0.3559322034
        0.6898734177        0.3220338983
        0.6898734177        0.2881355932
        0.6898734177        0.2542372881
        0.6898734177        0.2203389831
        0.6898734177        0.1864406780
        0.6898734177        0.1525423729
        0.6898734177        0.1186440678
        0.6898734177        0.0847457627
        0.6898734177        0.0508474576
        0.6898734177        0.0169491525
        0.6898734177       -0.0169491525
        0.6898734177       -0.0508474576
        0.6898734177       -0.0847457627
        0.6898734177       -0.1186440678
        0.6898734177       -0.1525423729
        0.6898734177       -0.1864406780
        0.6898734177       -0.2203389831
        0.6898734177       -0.2542372881
        0.6898734177       -0.2881355932
        0.6898734177       -0.3220338983
        0.6898734177       -0.3559322034
        0.6898734177       -0.3898305085
        0.6898734177       -0.4237288136
        0.6898734177       -0.4576271186
        0.6898734177       -0.4915254237
        0.6898734177       -0.5254237288
        0.6898734177       -0.5593220339
        0.6898734177       -0.5932203390
        0.6898734177       -0.6271186441
        0.6898734177       -0.6610169492
        0.6898734177       -0.6949152542
        0.6898734177       -0.7288135593
        0.6898734177       -0.7627118644
        0.6898734177       -0.7966101695
        0.6898734177       -0.8305084746
        0.6898734177       -0.8644067797
        0.6898734177       -0.8983050847
        0.6898734177       -0.9322033898
        0.6898734177       -0.9661016949
        0.7278481013        0.9661016949
        0.7278481013        1.0000000000
        0.7278481013        0.9322033898
        0.7278481013        0.8983050847
        0.7278481013        0.8644067797
        0.7278481013        0.8305084746
        0.7278481013        0.7966101695
        0.7278481013        0.7627118644
        0.7278481013        0.7288135593
        0.7278481013        0.6949152542
        0.7278481013        0.6610169492
        0.7278481013        0.6271186441
        0.7278481013        0.5932203390
        0.7278481013        0.5593220339
        0.7278481013        0.5254237288
        0.7278481013        0.4915254237
        0.7278481013        0.4576271186
        0.7278481013        0.4237288136
        0.7278481013        0.3898305085
        0.7278481013        0.3559322034
        0.7278481013        0.3220338983
        0.7278481013        0.2881355932
        0.7278481013        0.2542372881
        0.7278481013        0.2203389831
        0.7278481013        0.1864406780
        0.7278481013        0.1525423729
        0.7278481013        0.1186440678
        0.7278481013        0.0847457627
        0.7278481013        0.0508474576
        0.7278481013        0.0169491525
        0.7278481013       -0.0169491525
        0.7278481013       -0.0508474576
        0.7278481013       -0.0847457627
        0.7278481013       -0.1186440678
        0.7278481013       -0.1525423729
        0.7278481013       -0.1864406780
        0.7278481013       -0.2203389831
        0.7278481013       -0.2542372881
        0.7278481013       -0.2881355932
        0.7278481013       -0.3220338983
        0.7278481013       -0.3559322034
        0.7278481013       -0.3898305085
        0.7278481013       -0.4237288136
        0.7278481013       -0.4576271186
        0.7278481013       -0.4915254237
        0.7278481013       -0.5254237288
        0.7278481013       -0.5593220339
        0.7278481013       -0.5932203390
        0.7278481013       -0.6271186441
        0.7278481013       -0.6610169492
        0.7278481013       -0.6949152542
        0.7278481013       -0.7288135593
        0.7278481013       -0.7627118644
        0.7278481013       -0.7966101695
        0.7278481013       -0.8305084746
        0.7278481013       -0.8644067797
        0.7278481013       -0.8983050847
        0.7278481013       -0.9322033898
        0.7278481013       -0.9661016949
        0.7658227848        0.9661016949
        0.7658227848        1.0000000000
        0.7658227848        0.9322033898
        0.7658227848        0.8983050847
        0.7658227848        0.8644067797
        0.7658227848        0.8305084746
        0.7658227848        0.7966101695
        0.7658227848        0.7627118644
        0.7658227848        0.7288135593
        0.7658227848        0.6949152542
        0.7658227848        0.6610169492
        0.7658227848        0.6271186441
        0.7658227848        0.5932203390
        0.7658227848        0.5593220339
        0.7658227848        0.5254237288
        0.7658227848        0.4915254237
        0.7658227848        0.4576271186
        0.7658227848        0.4237288136
        0.7658227848        0.3898305085
        0.7658227848        0.3559322034
        0.7658227848        0.3220338983
        0.7658227848        0.2881355932
        0.7658227848        0.2542372881
        0.7658227848        0.2203389831
        0.7658227848        0.1864406780
        0.7658227848        0.1525423729
        0.7658227848        0.1186440678
        0.7658227848        0.0847457627
        0.7658227848        0.0508474576
        0.7658227848        0.0169491525
        0.7658227848       -0.0169491525
        0.7658227848       -0.0508474576
        0.7658227848       -0.0847457627
        0.7658227848       -0.1186440678
        0.7658227848       -0.1525423729
        0.7658227848       -0.1864406780
        0.7658227848       -0.2203389831
        0.7658227848       -0.2542372881
        0.7658227848       -0.2881355932
        0.7658227848       -0.3220338983
        0.7658227848       -0.3559322034
        0.7658227848       -0.3898305085
        0.7658227848       -0.4237288136
        0.7658227848       -0.4576271186
        0.7658227848       -0.4915254237
        0.7658227848       -0.5254237288
        0.7658227848       -0.5593220339
        0.7658227848       -0.5932203390
        0.7658227848       -0.6271186441
        0.7658227848       -0.6610169492
        0.7658227848       -0.6949152542
        0.7658227848       -0.7288135593
        0.7658227848       -0.7627118644
        0.7658227848       -0.7966101695
        0.7658227848       -0.8305084746
        0.7658227848       -0.8644067797
        0.7658227848       -0.8983050847
        0.7658227848       -0.9322033898
        0.7658227848       -0.9661016949
        0.8037974684        0.9661016949
        0.8037974684        1.0000000000
        0.8037974684        0.9322033898
        0.8037974684        0.8983050847
        0.8037974684        0.8644067797
        0.8037974684        0.8305084746
        0.8037974684        0.7966101695
        0.8037974684        0.7627118644
        0.8037974684        0.7288135593
        0.8037974684        0.6949152542
        0.8037974684        0.6610169492
        0.8037974684        0.6271186441
        0.8037974684        0.5932203390
        0.8037974684        0.5593220339
        0.8037974684        0.5254237288
        0.8037974684        0.4915254237
        0.8037974684        0.4576271186
        0.8037974684        0.4237288136
        0.8037974684        0.3898305085
        0.8037974684        0.3559322034
        0.8037974684        0.3220338983
        0.8037974684        0.2881355932
        0.8037974684        0.2542372881
        0.8037974684        0.2203389831
        0.8037974684        0.1864406780
        0.8037974684        0.1525423729
        0.8037974684        0.1186440678
        0.8037974684        0.0847457627
        0.8037974684        0.0508474576
        0.8037974684        0.0169491525
        0.8037974684       -0.0169491525
        0.8037974684       -0.0508474576
        0.8037974684       -0.0847457627
        0.8037974684       -0.1186440678
        0.8037974684       -0.1525423729
        0.8037974684       -0.1864406780
        0.8037974684       -0.2203389831
        0.8037974684       -0.2542372881
        0.8037974684       -0.2881355932
        0.8037974684       -0.3220338983
        0.8037974684       -0.3559322034
        0.8037974684       -0.3898305085
        0.8037974684       -0.4237288136
        0.8037974684       -0.4576271186
        0.8037974684       -0.4915254237
        0.8037974684       -0.5254237288
        0.8037974684       -0.5593220339
        0.8037974684       -0.5932203390
        0.8037974684       -0.6271186441
        0.8037974684       -0.6610169492
        0.8037974684       -0.6949152542
        0.8037974684       -0.7288135593
        0.8037974684       -0.7627118644
        0.8037974684       -0.7966101695
        0.8037974684       -0.8305084746
        0.8037974684       -0.8644067797
        0.8037974684       -0.8983050847
        0.8037974684       -0.9322033898
        0.8037974684       -0.9661016949
        0.8417721519        0.9661016949
        0.8417721519        1.0000000000
        0.8417721519        0.9322033898
        0.8417721519        0.8983050847
        0.8417721519        0.8644067797
        0.8417721519        0.8305084746
        0.8417721519        0.7966101695
        0.8417721519        0.7627118644
        0.8417721519        0.7288135593
        0.8417721519        0.6949152542
        0.8417721519        0.6610169492
        0.8417721519        0.6271186441
        0.8417721519        0.5932203390
        0.8417721519        0.5593220339
        0.8417721519        0.5254237288
        0.8417721519        0.4915254237
        0.8417721519        0.4576271186
        0.8417721519        0.4237288136
        0.8417721519        0.3898305085
        0.8417721519        0.3559322034
        0.8417721519        0.3220338983
        0.8417721519        0.2881355932
        0.8417721519        0.2542372881
        0.8417721519        0.2203389831
        0.8417721519        0.1864406780
        0.8417721519        0.1525423729
        0.8417721519        0.1186440678
        0.8417721519        0.0847457627
        0.8417721519        0.0508474576
        0.8417721519        0.0169491525
        0.8417721519       -0.0169491525
        0.8417721519       -0.0508474576
        0.8417721519       -0.0847457627
        0.8417721519       -0.1186440678
        0.8417721519       -0.1525423729
        0.8417721519       -0.1864406780
        0.8417721519       -0.2203389831
        0.8417721519       -0.2542372881
        0.8417721519       -0.2881355932
        0.8417721519       -0.3220338983
        0.8417721519       -0.3559322034
        0.8417721519       -0.3898305085
        0.8417721519       -0.4237288136
        0.8417721519       -0.4576271186
        0.8417721519       -0.4915254237
        0.8417721519       -0.5254237288
        0.8417721519       -0.5593220339
        0.8417721519       -0.5932203390
        0.8417721519       -0.6271186441
        0.8417721519       -0.6610169492
        0.8417721519       -0.6949152542
        0.8417721519       -0.7288135593
        0.8417721519       -0.7627118644
        0.8417721519       -0.7966101695
        0.8417721519       -0.8305084746
        0.8417721519       -0.8644067797
        0.8417721519       -0.8983050847
        0.8417721519       -0.9322033898
        0.8417721519       -0.9661016949
        0.8797468354        0.9661016949
        0.8797468354        1.0000000000
        0.8797468354        0.9322033898
        0.8797468354        0.8983050847
        0.8797468354        0.8644067797
        0.8797468354        0.8305084746
        0.8797468354        0.7966101695
        0.8797468354        0.7627118644
        0.8797468354        0.7288135593
        0.8797468354        0.6949152542
        0.8797468354        0.6610169492
        0.8797468354        0.6271186441
        0.8797468354        0.5932203390
        0.8797468354        0.5593220339
        0.8797468354        0.5254237288
        0.8797468354        0.4915254237
        0.8797468354        0.4576271186
        0.8797468354        0.4237288136
        0.8797468354        0.3898305085
        0.8797468354        0.3559322034
        0.8797468354        0.3220338983
        0.8797468354        0.2881355932
        0.8797468354        0.2542372881
        0.8797468354        0.2203389831
        0.8797468354        0.1864406780
        0.8797468354        0.1525423729
        0.8797468354        0.1186440678
        0.8797468354        0.0847457627
        0.8797468354        0.0508474576
        0.8797468354        0.0169491525
        0.8797468354       -0.0169491525
        0.8797468354       -0.0508474576
        0.8797468354       -0.0847457627
        0.8797468354       -0.1186440678
        0.8797468354       -0.1525423729
        0.8797468354       -0.1864406780
        0.8797468354       -0.2203389831
        0.8797468354       -0.2542372881
        0.8797468354       -0.2881355932
        0.8797468354       -0.3220338983
        0.8797468354       -0.3559322034
        0.8797468354       -0.3898305085
        0.8797468354       -0.4237288136
        0.8797468354       -0.4576271186
        0.8797468354       -0.4915254237
        0.8797468354       -0.5254237288
        0.8797468354       -0.5593220339
        0.8797468354       -0.5932203390
        0.8797468354       -0.6271186441
        0.8797468354       -0.6610169492
        0.8797468354       -0.6949152542
        0.8797468354       -0.7288135593
        0.8797468354       -0.7627118644
        0.8797468354       -0.7966101695
        0.8797468354       -0.8305084746
        0.8797468354       -0.8644067797
        0.8797468354       -0.8983050847
        0.8797468354       -0.9322033898
        0.8797468354       -0.9661016949
        0.9177215190        0.9661016949
        0.9177215190        1.0000000000
        0.9177215190        0.9322033898
        0.9177215190        0.8983050847
        0.9177215190        0.8644067797
        0.9177215190        0.8305084746
        0.9177215190        0.7966101695
        0.9177215190        0.7627118644
        0.9177215190        0.7288135593
        0.9177215190        0.6949152542
        0.9177215190        0.6610169492
        0.9177215190        0.6271186441
        0.9177215190        0.5932203390
        0.9177215190        0.5593220339
        0.9177215190        0.5254237288
        0.9177215190        0.4915254237
        0.9177215190        0.4576271186
        0.9177215190        0.4237288136
        0.9177215190        0.3898305085
        0.9177215190        0.3559322034
        0.9177215190        0.3220338983
        0.9177215190        0.2881355932
        0.9177215190        0.2542372881
        0.9177215190        0.2203389831
        0.9177215190        0.1864406780
        0.9177215190        0.1525423729
        0.9177215190        0.1186440678
        0.9177215190        0.0847457627
        0.9177215190        0.0508474576
        0.9177215190        0.0169491525
        0.9177215190       -0.0169491525
        0.9177215190       -0.0508474576
        0.9177215190       -0.0847457627
        0.9177215190       -0.1186440678
        0.9177215190       -0.1525423729
        0.9177215190       -0.1864406780
        0.9177215190       -0.2203389831
        0.9177215190       -0.2542372881
        0.9177215190       -0.2881355932
        0.9177215190       -0.3220338983
        0.9177215190       -0.3559322034
        0.9177215190       -0.3898305085
        0.9177215190       -0.4237288136
        0.9177215190       -0.4576271186
        0.9177215190       -0.4915254237
        0.9177215190       -0.5254237288
        0.9177215190       -0.5593220339
        0.9177215190       -0.5932203390
        0.9177215190       -0.6271186441
        0.9177215190       -0.6610169492
        0.9177215190       -0.6949152542
        0.9177215190       -0.7288135593
        0.9177215190       -0.7627118644
        0.9177215190       -0.7966101695
        0.9177215190       -0.8305084746
        0.9177215190       -0.8644067797
        0.9177215190       -0.8983050847
        0.9177215190       -0.9322033898
        0.9177215190       -0.9661016949
        0.9556962025        0.9661016949
        0.9556962025        1.0000000000
        0.9556962025        0.9322033898
        0.9556962025        0.8983050847
        0.9556962025        0.8644067797
        0.9556962025        0.8305084746
        0.9556962025        0.7966101695
        0.9556962025        0.7627118644
        0.9556962025        0.7288135593
        0.9556962025        0.6949152542
        0.9556962025        0.6610169492
        0.9556962025        0.6271186441
        0.9556962025        0.5932203390
        0.9556962025        0.5593220339
        0.9556962025        0.5254237288
        0.9556962025        0.4915254237
        0.9556962025        0.4576271186
        0.9556962025        0.4237288136
        0.9556962025        0.3898305085
        0.9556962025        0.3559322034
        0.9556962025        0.3220338983