TITLE = "Visualization of the volumetric solution"
VARIABLES = "x","y","Adjoint_Density","Adjoint_Momentum_x","Adjoint_Momentum_y","Adjoint_Energy","Sensitivity_x","Sensitivity_y","Surface_Sensitivity"
ZONE NODES= 2400, ELEMENTS= 2291, DATAPACKING=POINT, ZONETYPE=FEQUADRILATERAL
0.000000e+00	1.250000e+00	2.891407e+00	-1.096753e-02	3.247987e+00	-1.566532e-05	-4.994409e+01	-9.895336e-04	0.000000e+00	
0.000000e+00	1.218354e+00	3.212203e+00	-1.839917e-02	2.777826e+00	-3.154625e-05	-4.995786e+01	5.735541e-03	0.000000e+00	
3.448276e-02	1.218354e+00	-4.380181e+00	-3.300836e-02	3.723402e+00	-9.592172e-06	1.367335e+01	1.674874e-04	0.000000e+00	
3.448276e-02	1.250000e+00	-6.379650e+00	-1.782782e-02	4.628594e+00	-2.267704e-05	1.366828e+01	-8.498221e-04	0.000000e+00	
0.000000e+00	1.186709e+00	3.337495e+00	-2.256481e-02	2.774620e+00	-3.112645e-05	-4.996874e+01	3.876701e-03	0.000000e+00	
3.448276e-02	1.186709e+00	-4.223867e+00	-3.794137e-02	3.723652e+00	-1.258887e-05	1.367704e+01	1.523084e-03	0.000000e+00	
0.000000e+00	1.155063e+00	3.421006e+00	-2.568810e-02	2.776956e+00	-2.663789e-05	-4.996573e+01	1.521705e-03	0.000000e+00	
3.448276e-02	1.155063e+00	-4.163278e+00	-4.016470e-02	3.726850e+00	-6.967854e-06	1.367876e+01	7.546524e-04	0.000000e+00	
0.000000e+00	1.123418e+00	3.281677e+00	-2.181612e-02	2.777094e+00	-2.371843e-05	-4.996633e+01	3.215976e-04	0.000000e+00	
3.448276e-02	1.123418e+00	-4.283651e+00	-3.663607e-02	3.726642e+00	-4.135521e-06	1.367961e+01	3.508238e-04	0.000000e+00	
0.000000e+00	1.091772e+00	3.264728e+00	-2.135766e-02	2.778199e+00	-2.261726e-05	-4.996662e+01	-2.340922e-04	0.000000e+00	
3.448276e-02	1.091772e+00	-4.292572e+00	-3.637712e-02	3.727448e+00	-2.819221e-06	1.368000e+01	1.132574e-04	0.000000e+00	
0.000000e+00	1.060127e+00	3.227282e+00	-2.023249e-02	2.778331e+00	-2.209686e-05	-4.996647e+01	-3.042969e-04	0.000000e+00	
3.448276e-02	1.060127e+00	-4.327576e+00	-3.530669e-02	3.727259e+00	-2.184622e-06	1.368023e+01	6.537962e-05	0.000000e+00	
0.000000e+00	1.028481e+00	3.224146e+00	-2.013634e-02	2.778623e+00	-2.199313e-05	-4.996664e+01	-1.994448e-04	0.000000e+00	
3.448276e-02	1.028481e+00	-4.331123e+00	-3.520696e-02	3.727360e+00	-1.928105e-06	1.368037e+01	3.292648e-05	0.000000e+00	
0.000000e+00	9.968354e-01	3.218620e+00	-1.997562e-02	2.778642e+00	-2.197162e-05	-4.996672e+01	-8.787429e-05	0.000000e+00	
3.448276e-02	9.968354e-01	-4.339336e+00	-3.496727e-02	3.727240e+00	-1.761339e-06	1.368045e+01	1.699295e-05	0.000000e+00	
0.000000e+00	9.651899e-01	3.221005e+00	-2.004983e-02	2.778669e+00	-2.204311e-05	-4.996681e+01	-1.917466e-05	0.000000e+00	
3.448276e-02	9.651899e-01	-4.339333e+00	-3.497217e-02	3.727189e+00	-1.715723e-06	1.368049e+01	-6.935279e-07	0.000000e+00	
0.000000e+00	9.335443e-01	3.223327e+00	-2.011781e-02	2.778636e+00	-2.211897e-05	-4.996684e+01	9.321648e-06	0.000000e+00	
3.448276e-02	9.335443e-01	-4.339414e+00	-3.496831e-02	3.727106e+00	-1.696244e-06	1.368052e+01	-7.976623e-06	0.000000e+00	
0.000000e+00	9.018987e-01	3.226787e+00	-2.021661e-02	2.778605e+00	-2.219969e-05	-4.996685e+01	1.640177e-05	0.000000e+00	
3.448276e-02	9.018987e-01	-4.337724e+00	-3.501457e-02	3.727046e+00	-1.708458e-06	1.368053e+01	-9.863279e-06	0.000000e+00	
0.000000e+00	8.702532e-01	3.229762e+00	-2.030008e-02	2.778568e+00	-2.226683e-05	-4.996686e+01	1.574669e-05	0.000000e+00	
3.448276e-02	8.702532e-01	-4.336112e+00	-3.505755e-02	3.726993e+00	-1.726003e-06	1.368053e+01	-7.633462e-06	0.000000e+00	
0.000000e+00	8.386076e-01	3.232351e+00	-2.037259e-02	2.778538e+00	-2.232189e-05	-4.996686e+01	1.434348e-05	0.000000e+00	
3.448276e-02	8.386076e-01	-4.334438e+00	-3.510297e-02	3.726953e+00	-1.747470e-06	1.368054e+01	-5.355321e-06	0.000000e+00	
0.000000e+00	8.069620e-01	3.234358e+00	-2.042885e-02	2.778512e+00	-2.236277e-05	-4.996686e+01	1.375209e-05	0.000000e+00	
3.448276e-02	8.069620e-01	-4.333037e+00	-3.514114e-02	3.726921e+00	-1.766787e-06	1.368054e+01	-3.715016e-06	0.000000e+00	
0.000000e+00	7.753165e-01	3.235878e+00	-2.047153e-02	2.778493e+00	-2.239454e-05	-4.996686e+01	1.383410e-05	0.000000e+00	
3.448276e-02	7.753165e-01	-4.331886e+00	-3.517273e-02	3.726898e+00	-1.783569e-06	1.368054e+01	-3.067643e-06	0.000000e+00	
0.000000e+00	7.436709e-01	3.236988e+00	-2.050278e-02	2.778478e+00	-2.241597e-05	-4.996686e+01	1.403480e-05	0.000000e+00	
3.448276e-02	7.436709e-01	-4.330988e+00	-3.519747e-02	3.726881e+00	-1.796956e-06	1.368054e+01	-2.926534e-06	0.000000e+00	
0.000000e+00	7.120253e-01	3.237778e+00	-2.052505e-02	2.778467e+00	-2.243177e-05	-4.996687e+01	1.411931e-05	0.000000e+00	
3.448276e-02	7.120253e-01	-4.330308e+00	-3.521627e-02	3.726869e+00	-1.807417e-06	1.368054e+01	-3.032609e-06	0.000000e+00	
0.000000e+00	6.803797e-01	3.238329e+00	-2.054058e-02	2.778460e+00	-2.244250e-05	-4.996686e+01	1.398848e-05	0.000000e+00	
3.448276e-02	6.803797e-01	-4.329805e+00	-3.523018e-02	3.726861e+00	-1.815236e-06	1.368054e+01	-3.080513e-06	0.000000e+00	
0.000000e+00	6.487342e-01	3.238706e+00	-2.055124e-02	2.778455e+00	-2.244977e-05	-4.996686e+01	1.374840e-05	0.000000e+00	
3.448276e-02	6.487342e-01	-4.329442e+00	-3.524029e-02	3.726855e+00	-1.820991e-06	1.368054e+01	-3.092303e-06	0.000000e+00	
0.000000e+00	6.170886e-01	3.238958e+00	-2.055841e-02	2.778451e+00	-2.245461e-05	-4.996686e+01	1.347247e-05	0.000000e+00	
3.448276e-02	6.170886e-01	-4.329184e+00	-3.524749e-02	3.726851e+00	-1.825116e-06	1.368054e+01	-3.062464e-06	0.000000e+00	
0.000000e+00	5.854430e-01	3.239124e+00	-2.056316e-02	2.778449e+00	-2.245778e-05	-4.996686e+01	1.320307e-05	0.000000e+00	
3.448276e-02	5.854430e-01	-4.329004e+00	-3.525254e-02	3.726848e+00	-1.828024e-06	1.368054e+01	-3.010969e-06	0.000000e+00	
0.000000e+00	5.537975e-01	3.239231e+00	-2.056625e-02	2.778448e+00	-2.245983e-05	-4.996686e+01	1.297589e-05	0.000000e+00	
3.448276e-02	5.537975e-01	-4.328882e+00	-3.525602e-02	3.726847e+00	-1.830037e-06	1.368054e+01	-2.963252e-06	0.000000e+00	
0.000000e+00	5.221519e-01	3.239299e+00	-2.056824e-02	2.778447e+00	-2.246113e-05	-4.996686e+01	1.280059e-05	0.000000e+00	
3.448276e-02	5.221519e-01	-4.328800e+00	-3.525839e-02	3.726845e+00	-1.831410e-06	1.368054e+01	-2.932404e-06	0.000000e+00	
0.000000e+00	4.905063e-01	3.239341e+00	-2.056949e-02	2.778446e+00	-2.246194e-05	-4.996686e+01	1.267776e-05	0.000000e+00	
3.448276e-02	4.905063e-01	-4.328746e+00	-3.525998e-02	3.726845e+00	-1.832331e-06	1.368054e+01	-2.922079e-06	0.000000e+00	
0.000000e+00	4.588608e-01	3.239366e+00	-2.057027e-02	2.778446e+00	-2.246244e-05	-4.996685e+01	1.259967e-05	0.000000e+00	
3.448276e-02	4.588608e-01	-4.328711e+00	-3.526103e-02	3.726844e+00	-1.832940e-06	1.368054e+01	-2.930976e-06	0.000000e+00	
0.000000e+00	4.272152e-01	3.239380e+00	-2.057075e-02	2.778445e+00	-2.246273e-05	-4.996685e+01	1.255609e-05	0.000000e+00	
3.448276e-02	4.272152e-01	-4.328690e+00	-3.526171e-02	3.726844e+00	-1.833337e-06	1.368054e+01	-2.954259e-06	0.000000e+00	
0.000000e+00	3.955696e-01	3.239387e+00	-2.057103e-02	2.778445e+00	-2.246291e-05	-4.996685e+01	1.253704e-05	0.000000e+00	
3.448276e-02	3.955696e-01	-4.328677e+00	-3.526215e-02	3.726844e+00	-1.833592e-06	1.368054e+01	-2.987157e-06	0.000000e+00	
0.000000e+00	3.639241e-01	3.239391e+00	-2.057120e-02	2.778445e+00	-2.246301e-05	-4.996685e+01	1.253495e-05	0.000000e+00	
3.448276e-02	3.639241e-01	-4.328670e+00	-3.526243e-02	3.726843e+00	-1.833753e-06	1.368054e+01	-3.025686e-06	0.000000e+00	
0.000000e+00	3.322785e-01	3.239391e+00	-2.057130e-02	2.778445e+00	-2.246306e-05	-4.996684e+01	1.254495e-05	0.000000e+00	
3.448276e-02	3.322785e-01	-4.328666e+00	-3.526260e-02	3.726843e+00	-1.833854e-06	1.368054e+01	-3.067539e-06	0.000000e+00	
0.000000e+00	3.006329e-01	3.239391e+00	-2.057135e-02	2.778445e+00	-2.246309e-05	-4.996684e+01	1.256430e-05	0.000000e+00	
3.448276e-02	3.006329e-01	-4.328665e+00	-3.526271e-02	3.726843e+00	-1.833915e-06	1.368054e+01	-3.111559e-06	0.000000e+00	
0.000000e+00	2.689873e-01	3.239389e+00	-2.057138e-02	2.778445e+00	-2.246311e-05	-4.996684e+01	1.259149e-05	0.000000e+00	
3.448276e-02	2.689873e-01	-4.328666e+00	-3.526278e-02	3.726843e+00	-1.833953e-06	1.368054e+01	-3.157390e-06	0.000000e+00	
0.000000e+00	2.373418e-01	3.239387e+00	-2.057140e-02	2.778445e+00	-2.246311e-05	-4.996683e+01	1.262552e-05	0.000000e+00	
3.448276e-02	2.373418e-01	-4.328667e+00	-3.526282e-02	3.726843e+00	-1.833975e-06	1.368054e+01	-3.204925e-06	0.000000e+00	
0.000000e+00	2.056962e-01	3.239385e+00	-2.057141e-02	2.778445e+00	-2.246312e-05	-4.996683e+01	1.266552e-05	0.000000e+00	
3.448276e-02	2.056962e-01	-4.328669e+00	-3.526285e-02	3.726843e+00	-1.833988e-06	1.368053e+01	-3.254102e-06	0.000000e+00	
0.000000e+00	1.740506e-01	3.239383e+00	-2.057142e-02	2.778445e+00	-2.246312e-05	-4.996683e+01	1.271067e-05	0.000000e+00	
3.448276e-02	1.740506e-01	-4.328671e+00	-3.526287e-02	3.726844e+00	-1.833996e-06	1.368053e+01	-3.304805e-06	0.000000e+00	
0.000000e+00	1.424051e-01	3.239381e+00	-2.057143e-02	2.778445e+00	-2.246312e-05	-4.996683e+01	1.276028e-05	0.000000e+00	
3.448276e-02	1.424051e-01	-4.328673e+00	-3.526289e-02	3.726844e+00	-1.834000e-06	1.368053e+01	-3.356915e-06	0.000000e+00	
0.000000e+00	1.107595e-01	3.239379e+00	-2.057144e-02	2.778445e+00	-2.246312e-05	-4.996682e+01	1.281380e-05	0.000000e+00	
3.448276e-02	1.107595e-01	-4.328675e+00	-3.526291e-02	3.726844e+00	-1.834003e-06	1.368053e+01	-3.410352e-06	0.000000e+00	
0.000000e+00	7.911392e-02	3.239377e+00	-2.057146e-02	2.778445e+00	-2.246313e-05	-4.996682e+01	1.287086e-05	0.000000e+00	
3.448276e-02	7.911392e-02	-4.328676e+00	-3.526294e-02	3.726844e+00	-1.834005e-06	1.368053e+01	-3.465112e-06	0.000000e+00	
0.000000e+00	4.746835e-02	3.239376e+00	-2.057149e-02	2.778445e+00	-2.246313e-05	-4.996682e+01	1.293125e-05	0.000000e+00	
3.448276e-02	4.746835e-02	-4.328678e+00	-3.526299e-02	3.726844e+00	-1.834006e-06	1.368053e+01	-3.521260e-06	0.000000e+00	
0.000000e+00	1.582278e-02	3.239375e+00	-2.057154e-02	2.778445e+00	-2.246315e-05	-4.996681e+01	1.299482e-05	0.000000e+00	
3.448276e-02	1.582278e-02	-4.328678e+00	-3.526305e-02	3.726844e+00	-1.834006e-06	1.368053e+01	-3.578910e-06	0.000000e+00	
0.000000e+00	-1.582278e-02	3.239374e+00	-2.057160e-02	2.778445e+00	-2.246317e-05	-4.996681e+01	1.306145e-05	0.000000e+00	
3.448276e-02	-1.582278e-02	-4.328678e+00	-3.526314e-02	3.726844e+00	-1.834007e-06	1.368053e+01	-3.638202e-06	0.000000e+00	
0.000000e+00	-4.746835e-02	3.239375e+00	-2.057170e-02	2.778445e+00	-2.246319e-05	-4.996681e+01	1.313098e-05	0.000000e+00	
3.448276e-02	-4.746835e-02	-4.328676e+00	-3.526328e-02	3.726844e+00	-1.834008e-06	1.368053e+01	-3.699282e-06	0.000000e+00	
0.000000e+00	-7.911392e-02	3.239378e+00	-2.057184e-02	2.778445e+00	-2.246323e-05	-4.996680e+01	1.320320e-05	0.000000e+00	
3.448276e-02	-7.911392e-02	-4.328672e+00	-3.526348e-02	3.726844e+00	-1.834009e-06	1.368053e+01	-3.762283e-06	0.000000e+00	
0.000000e+00	-1.107595e-01	3.239382e+00	-2.057205e-02	2.778445e+00	-2.246328e-05	-4.996680e+01	1.327780e-05	0.000000e+00	
3.448276e-02	-1.107595e-01	-4.328665e+00	-3.526377e-02	3.726844e+00	-1.834011e-06	1.368053e+01	-3.827325e-06	0.000000e+00	
0.000000e+00	-1.424051e-01	3.239390e+00	-2.057234e-02	2.778446e+00	-2.246336e-05	-4.996679e+01	1.335438e-05	0.000000e+00	
3.448276e-02	-1.424051e-01	-4.328654e+00	-3.526419e-02	3.726845e+00	-1.834015e-06	1.368052e+01	-3.894488e-06	0.000000e+00	
0.000000e+00	-1.740506e-01	3.239401e+00	-2.057274e-02	2.778446e+00	-2.246345e-05	-4.996679e+01	1.343239e-05	0.000000e+00	
3.448276e-02	-1.740506e-01	-4.328637e+00	-3.526478e-02	3.726845e+00	-1.834023e-06	1.368052e+01	-3.963808e-06	0.000000e+00	
0.000000e+00	-2.056962e-01	3.239418e+00	-2.057331e-02	2.778446e+00	-2.246358e-05	-4.996679e+01	1.351108e-05	0.000000e+00	
3.448276e-02	-2.056962e-01	-4.328613e+00	-3.526561e-02	3.726846e+00	-1.834036e-06	1.368052e+01	-4.035260e-06	0.000000e+00	
0.000000e+00	-2.373418e-01	3.239442e+00	-2.057410e-02	2.778446e+00	-2.246376e-05	-4.996678e+01	1.358943e-05	0.000000e+00	
3.448276e-02	-2.373418e-01	-4.328577e+00	-3.526678e-02	3.726847e+00	-1.834057e-06	1.368052e+01	-4.108731e-06	0.000000e+00	
0.000000e+00	-2.689873e-01	3.239476e+00	-2.057517e-02	2.778446e+00	-2.246398e-05	-4.996678e+01	1.366597e-05	0.000000e+00	
3.448276e-02	-2.689873e-01	-4.328527e+00	-3.526839e-02	3.726848e+00	-1.834091e-06	1.368052e+01	-4.183994e-06	0.000000e+00	
0.000000e+00	-3.006329e-01	3.239523e+00	-2.057663e-02	2.778447e+00	-2.246427e-05	-4.996677e+01	1.373869e-05	0.000000e+00	
3.448276e-02	-3.006329e-01	-4.328458e+00	-3.527060e-02	3.726850e+00	-1.834146e-06	1.368052e+01	-4.260686e-06	0.000000e+00	
0.000000e+00	-3.322785e-01	3.239587e+00	-2.057859e-02	2.778447e+00	-2.246463e-05	-4.996677e+01	1.380489e-05	0.000000e+00	
3.448276e-02	-3.322785e-01	-4.328363e+00	-3.527359e-02	3.726852e+00	-1.834230e-06	1.368052e+01	-4.338205e-06	0.000000e+00	
0.000000e+00	-3.639241e-01	3.239672e+00	-2.058120e-02	2.778448e+00	-2.246509e-05	-4.996677e+01	1.386140e-05	0.000000e+00	
3.448276e-02	-3.639241e-01	-4.328235e+00	-3.527760e-02	3.726856e+00	-1.834359e-06	1.368052e+01	-4.415672e-06	0.000000e+00	
0.000000e+00	-3.955696e-01	3.239786e+00	-2.058463e-02	2.778449e+00	-2.246564e-05	-4.996676e+01	1.390478e-05	0.000000e+00	
3.448276e-02	-3.955696e-01	-4.328064e+00	-3.528291e-02	3.726860e+00	-1.834551e-06	1.368052e+01	-4.491698e-06	0.000000e+00	
0.000000e+00	-4.272152e-01	3.239934e+00	-2.058908e-02	2.778451e+00	-2.246630e-05	-4.996676e+01	1.393213e-05	0.000000e+00	
3.448276e-02	-4.272152e-01	-4.327839e+00	-3.528988e-02	3.726865e+00	-1.834837e-06	1.368051e+01	-4.564404e-06	0.000000e+00	
0.000000e+00	-4.588608e-01	3.240125e+00	-2.059480e-02	2.778452e+00	-2.246708e-05	-4.996675e+01	1.394111e-05	0.000000e+00	
3.448276e-02	-4.588608e-01	-4.327547e+00	-3.529891e-02	3.726872e+00	-1.835255e-06	1.368051e+01	-4.631022e-06	0.000000e+00	
0.000000e+00	-4.905063e-01	3.240368e+00	-2.060205e-02	2.778454e+00	-2.246795e-05	-4.996675e+01	1.393032e-05	0.000000e+00	
3.448276e-02	-4.905063e-01	-4.327172e+00	-3.531045e-02	3.726881e+00	-1.835863e-06	1.368051e+01	-4.688355e-06	0.000000e+00	
0.000000e+00	-5.221519e-01	3.240672e+00	-2.061109e-02	2.778457e+00	-2.246889e-05	-4.996674e+01	1.389616e-05	0.000000e+00	
3.448276e-02	-5.221519e-01	-4.326699e+00	-3.532499e-02	3.726892e+00	-1.836740e-06	1.368051e+01	-4.731987e-06	0.000000e+00	
0.000000e+00	-5.537975e-01	3.241045e+00	-2.062218e-02	2.778460e+00	-2.246983e-05	-4.996674e+01	1.383087e-05	0.000000e+00	
3.448276e-02	-5.537975e-01	-4.326111e+00	-3.534301e-02	3.726906e+00	-1.837999e-06	1.368051e+01	-4.757952e-06	0.000000e+00	
0.000000e+00	-5.854430e-01	3.241493e+00	-2.063548e-02	2.778464e+00	-2.247065e-05	-4.996673e+01	1.371460e-05	0.000000e+00	
3.448276e-02	-5.854430e-01	-4.325395e+00	-3.536490e-02	3.726922e+00	-1.839795e-06	1.368051e+01	-4.760328e-06	0.000000e+00	
0.000000e+00	-6.170886e-01	3.242017e+00	-2.065104e-02	2.778468e+00	-2.247118e-05	-4.996673e+01	1.352015e-05	0.000000e+00	
3.448276e-02	-6.170886e-01	-4.324542e+00	-3.539090e-02	3.726940e+00	-1.842340e-06	1.368051e+01	-4.735759e-06	0.000000e+00	
0.000000e+00	-6.487342e-01	3.242611e+00	-2.066862e-02	2.778473e+00	-2.247111e-05	-4.996672e+01	1.321369e-05	0.000000e+00	
3.448276e-02	-6.487342e-01	-4.323555e+00	-3.542088e-02	3.726961e+00	-1.845922e-06	1.368051e+01	-4.674123e-06	0.000000e+00	
0.000000e+00	-6.803797e-01	3.243251e+00	-2.068759e-02	2.778478e+00	-2.247002e-05	-4.996672e+01	1.279911e-05	0.000000e+00	
3.448276e-02	-6.803797e-01	-4.322456e+00	-3.545412e-02	3.726983e+00	-1.850926e-06	1.368050e+01	-4.568486e-06	0.000000e+00	
0.000000e+00	-7.120253e-01	3.243894e+00	-2.070660e-02	2.778482e+00	-2.246729e-05	-4.996671e+01	1.233312e-05	0.000000e+00	
3.448276e-02	-7.120253e-01	-4.321297e+00	-3.548895e-02	3.727003e+00	-1.857842e-06	1.368050e+01	-4.378973e-06	0.000000e+00	
0.000000e+00	-7.436709e-01	3.244460e+00	-2.072334e-02	2.778485e+00	-2.246203e-05	-4.996671e+01	1.200280e-05	0.000000e+00	
3.448276e-02	-7.436709e-01	-4.320178e+00	-3.552227e-02	3.727019e+00	-1.867308e-06	1.368050e+01	-4.061120e-06	0.000000e+00	
0.000000e+00	-7.753165e-01	3.244821e+00	-2.073401e-02	2.778485e+00	-2.245305e-05	-4.996670e+01	1.201623e-05	0.000000e+00	
3.448276e-02	-7.753165e-01	-4.319264e+00	-3.554883e-02	3.727026e+00	-1.880028e-06	1.368050e+01	-3.464155e-06	0.000000e+00	
0.000000e+00	-8.069620e-01	3.244777e+00	-2.073270e-02	2.778479e+00	-2.243871e-05	-4.996670e+01	1.261948e-05	0.000000e+00	
3.448276e-02	-8.069620e-01	-4.318823e+00	-3.556032e-02	3.727014e+00	-1.896903e-06	1.368050e+01	-2.484506e-06	0.000000e+00	
0.000000e+00	-8.386076e-01	3.244035e+00	-2.071090e-02	2.778466e+00	-2.241701e-05	-4.996669e+01	1.374671e-05	0.000000e+00	
3.448276e-02	-8.386076e-01	-4.319258e+00	-3.554425e-02	3.726971e+00	-1.918486e-06	1.368050e+01	-8.358488e-07	0.000000e+00	
0.000000e+00	-8.702532e-01	3.242160e+00	-2.065595e-02	2.778440e+00	-2.238523e-05	-4.996669e+01	1.566877e-05	0.000000e+00	
3.448276e-02	-8.702532e-01	-4.321164e+00	-3.548242e-02	3.726881e+00	-1.945682e-06	1.368049e+01	1.330184e-06	0.000000e+00	
0.000000e+00	-9.018987e-01	3.238597e+00	-2.055168e-02	2.778396e+00	-2.234086e-05	-4.996668e+01	1.951859e-05	0.000000e+00	
3.448276e-02	-9.018987e-01	-4.325367e+00	-3.534956e-02	3.726721e+00	-1.977231e-06	1.368048e+01	4.328246e-06	0.000000e+00	
0.000000e+00	-9.335443e-01	3.232556e+00	-2.037426e-02	2.778328e+00	-2.228006e-05	-4.996666e+01	3.106281e-05	0.000000e+00	
3.448276e-02	-9.335443e-01	-4.332975e+00	-3.511142e-02	3.726462e+00	-2.013866e-06	1.368047e+01	7.218986e-06	0.000000e+00	
0.000000e+00	-9.651899e-01	3.223253e+00	-2.009875e-02	2.778225e+00	-2.220230e-05	-4.996664e+01	6.148737e-05	0.000000e+00	
3.448276e-02	-9.651899e-01	-4.345366e+00	-3.472405e-02	3.726064e+00	-2.047285e-06	1.368045e+01	1.179645e-05	0.000000e+00	
0.000000e+00	-9.968354e-01	3.209419e+00	-1.968561e-02	2.778082e+00	-2.210290e-05	-4.996656e+01	1.292100e-04	0.000000e+00	
3.448276e-02	-9.968354e-01	-4.364189e+00	-3.413454e-02	3.725498e+00	-2.082892e-06	1.368042e+01	1.569156e-05	0.000000e+00	
0.000000e+00	-1.028481e+00	3.190107e+00	-1.910858e-02	2.777888e+00	-2.198872e-05	-4.996653e+01	2.393366e-04	0.000000e+00	
3.448276e-02	-1.028481e+00	-4.391653e+00	-3.327564e-02	3.724715e+00	-2.090680e-06	1.368036e+01	2.433931e-05	0.000000e+00	
0.000000e+00	-1.060127e+00	3.163130e+00	-1.831645e-02	2.777640e+00	-2.185276e-05	-4.996642e+01	3.568173e-04	0.000000e+00	
3.448276e-02	-1.060127e+00	-4.429716e+00	-3.210037e-02	3.723734e+00	-2.123846e-06	1.368024e+01	1.537648e-05	0.000000e+00	
0.000000e+00	-1.091772e+00	3.126887e+00	-1.728338e-02	2.777361e+00	-2.169979e-05	-4.996664e+01	3.281052e-04	0.000000e+00	
3.448276e-02	-1.091772e+00	-4.484198e+00	-3.047332e-02	3.722596e+00	-2.117008e-06	1.368003e+01	-1.200135e-05	0.000000e+00	
0.000000e+00	-1.123418e+00	3.084066e+00	-1.606938e-02	2.776978e+00	-2.156845e-05	-4.996651e+01	-1.399432e-04	0.000000e+00	
3.448276e-02	-1.123418e+00	-4.552879e+00	-2.849355e-02	3.721597e+00	-2.475510e-06	1.367955e+01	-1.652980e-04	0.000000e+00	
0.000000e+00	-1.155063e+00	3.021754e+00	-1.419770e-02	2.776907e+00	-2.118608e-05	-4.996609e+01	-1.218626e-03	0.000000e+00	
3.448276e-02	-1.155063e+00	-4.656606e+00	-2.553693e-02	3.721007e+00	-3.378409e-06	1.367859e+01	-3.700352e-04	0.000000e+00	
0.000000e+00	-1.186709e+00	3.023452e+00	-1.377350e-02	2.775794e+00	-2.153184e-05	-4.996983e+01	-3.599556e-03	0.000000e+00	
3.448276e-02	-1.186709e+00	-4.809147e+00	-2.133892e-02	3.728965e+00	-8.568793e-06	1.367649e+01	-8.552761e-04	0.000000e+00	
0.000000e+00	-1.218354e+00	2.517377e+00	1.418696e-03	2.742240e+00	4.524956e-07	-4.996007e+01	-6.630315e-03	0.000000e+00	
3.448276e-02	-1.218354e+00	-5.109530e+00	-9.061420e-03	3.659953e+00	2.916257e-05	1.367334e+01	-6.032851e-04	0.000000e+00	
6.896552e-02	1.218354e+00	-1.068056e+01	-2.905167e-02	3.732478e+00	9.539143e-06	1.036303e+01	-1.666611e-03	0.000000e+00	
6.896552e-02	1.250000e+00	-1.411238e+01	-1.254768e-02	4.645073e+00	1.046698e-05	1.036398e+01	-1.508502e-04	0.000000e+00	
6.896552e-02	1.186709e+00	-1.043916e+01	-3.665035e-02	3.735577e+00	4.091024e-06	1.036390e+01	-5.158564e-04	0.000000e+00	
6.896552e-02	1.155063e+00	-1.040231e+01	-3.809716e-02	3.738787e+00	1.036444e-05	1.036460e+01	-3.087517e-04	0.000000e+00	
6.896552e-02	1.123418e+00	-1.049126e+01	-3.539835e-02	3.738720e+00	1.289431e-05	1.036497e+01	-8.477452e-05	0.000000e+00	
6.896552e-02	1.091772e+00	-1.048977e+01	-3.543791e-02	3.739408e+00	1.417290e-05	1.036512e+01	-8.927375e-05	0.000000e+00	
6.896552e-02	1.060127e+00	-1.051409e+01	-3.468161e-02	3.739201e+00	1.464442e-05	1.036519e+01	-4.351181e-05	0.000000e+00	
6.896552e-02	1.028481e+00	-1.051312e+01	-3.472471e-02	3.739284e+00	1.482841e-05	1.036524e+01	-3.203445e-05	0.000000e+00	
6.896552e-02	9.968354e-01	-1.051906e+01	-3.455230e-02	3.739173e+00	1.493920e-05	1.036526e+01	-1.830992e-05	0.000000e+00	
6.896552e-02	9.651899e-01	-1.051843e+01	-3.457506e-02	3.739134e+00	1.496058e-05	1.036528e+01	-1.847328e-05	0.000000e+00	
6.896552e-02	9.335443e-01	-1.051875e+01	-3.456217e-02	3.739066e+00	1.497064e-05	1.036529e+01	-1.607212e-05	0.000000e+00	
6.896552e-02	9.018987e-01	-1.051761e+01	-3.459108e-02	3.739020e+00	1.495825e-05	1.036529e+01	-1.391339e-05	0.000000e+00	
6.896552e-02	8.702532e-01	-1.051666e+01	-3.461408e-02	3.738978e+00	1.494486e-05	1.036529e+01	-9.919921e-06	0.000000e+00	
6.896552e-02	8.386076e-01	-1.051558e+01	-3.464210e-02	3.738945e+00	1.492881e-05	1.036530e+01	-6.876317e-06	0.000000e+00	
6.896552e-02	8.069620e-01	-1.051466e+01	-3.466608e-02	3.738920e+00	1.491476e-05	1.036530e+01	-4.687502e-06	0.000000e+00	
6.896552e-02	7.753165e-01	-1.051386e+01	-3.468717e-02	3.738900e+00	1.490241e-05	1.036530e+01	-3.699830e-06	0.000000e+00	
6.896552e-02	7.436709e-01	-1.051322e+01	-3.470439e-02	3.738886e+00	1.489241e-05	1.036530e+01	-3.261968e-06	0.000000e+00	
6.896552e-02	7.120253e-01	-1.051271e+01	-3.471812e-02	3.738875e+00	1.488443e-05	1.036530e+01	-3.126104e-06	0.000000e+00	
6.896552e-02	6.803797e-01	-1.051231e+01	-3.472876e-02	3.738868e+00	1.487830e-05	1.036530e+01	-3.039189e-06	0.000000e+00	
6.896552e-02	6.487342e-01	-1.051202e+01	-3.473685e-02	3.738862e+00	1.487364e-05	1.036530e+01	-2.951269e-06	0.000000e+00	
6.896552e-02	6.170886e-01	-1.051179e+01	-3.474288e-02	3.738858e+00	1.487020e-05	1.036530e+01	-2.841907e-06	0.000000e+00	
6.896552e-02	5.854430e-01	-1.051163e+01	-3.474731e-02	3.738856e+00	1.486768e-05	1.036530e+01	-2.738764e-06	0.000000e+00	
6.896552e-02	5.537975e-01	-1.051152e+01	-3.475050e-02	3.738854e+00	1.486588e-05	1.036530e+01	-2.651888e-06	0.000000e+00	
6.896552e-02	5.221519e-01	-1.051144e+01	-3.475277e-02	3.738852e+00	1.486460e-05	1.036529e+01	-2.590959e-06	0.000000e+00	
6.896552e-02	4.905063e-01	-1.051138e+01	-3.475436e-02	3.738852e+00	1.486371e-05	1.036529e+01	-2.554766e-06	0.000000e+00	
6.896552e-02	4.588608e-01	-1.051135e+01	-3.475546e-02	3.738851e+00	1.486310e-05	1.036529e+01	-2.540232e-06	0.000000e+00	
6.896552e-02	4.272152e-01	-1.051132e+01	-3.475621e-02	3.738851e+00	1.486268e-05	1.036529e+01	-2.541251e-06	0.000000e+00	
6.896552e-02	3.955696e-01	-1.051131e+01	-3.475672e-02	3.738850e+00	1.486240e-05	1.036529e+01	-2.552821e-06	0.000000e+00	
6.896552e-02	3.639241e-01	-1.051130e+01	-3.475706e-02	3.738850e+00	1.486221e-05	1.036529e+01	-2.570740e-06	0.000000e+00	
6.896552e-02	3.322785e-01	-1.051129e+01	-3.475728e-02	3.738850e+00	1.486209e-05	1.036529e+01	-2.592636e-06	0.000000e+00	
6.896552e-02	3.006329e-01	-1.051129e+01	-3.475743e-02	3.738850e+00	1.486201e-05	1.036529e+01	-2.617202e-06	0.000000e+00	
6.896552e-02	2.689873e-01	-1.051129e+01	-3.475753e-02	3.738850e+00	1.486196e-05	1.036529e+01	-2.643985e-06	0.000000e+00	
6.896552e-02	2.373418e-01	-1.051129e+01	-3.475759e-02	3.738850e+00	1.486193e-05	1.036529e+01	-2.672791e-06	0.000000e+00	
6.896552e-02	2.056962e-01	-1.051129e+01	-3.475763e-02	3.738850e+00	1.486191e-05	1.036529e+01	-2.703527e-06	0.000000e+00	
6.896552e-02	1.740506e-01	-1.051129e+01	-3.475766e-02	3.738850e+00	1.486190e-05	1.036529e+01	-2.736062e-06	0.000000e+00	
6.896552e-02	1.424051e-01	-1.051129e+01	-3.475769e-02	3.738850e+00	1.486189e-05	1.036529e+01	-2.770271e-06	0.000000e+00	
6.896552e-02	1.107595e-01	-1.051129e+01	-3.475771e-02	3.738850e+00	1.486189e-05	1.036529e+01	-2.806058e-06	0.000000e+00	
6.896552e-02	7.911392e-02	-1.051129e+01	-3.475774e-02	3.738850e+00	1.486188e-05	1.036529e+01	-2.843391e-06	0.000000e+00	
6.896552e-02	4.746835e-02	-1.051129e+01	-3.475777e-02	3.738850e+00	1.486189e-05	1.036529e+01	-2.882305e-06	0.000000e+00	
6.896552e-02	1.582278e-02	-1.051129e+01	-3.475783e-02	3.738850e+00	1.486189e-05	1.036529e+01	-2.922881e-06	0.000000e+00	
6.896552e-02	-1.582278e-02	-1.051129e+01	-3.475791e-02	3.738850e+00	1.486189e-05	1.036528e+01	-2.965235e-06	0.000000e+00	
6.896552e-02	-4.746835e-02	-1.051129e+01	-3.475802e-02	3.738851e+00	1.486190e-05	1.036528e+01	-3.009495e-06	0.000000e+00	
6.896552e-02	-7.911392e-02	-1.051129e+01	-3.475819e-02	3.738851e+00	1.486190e-05	1.036528e+01	-3.055785e-06	0.000000e+00	
6.896552e-02	-1.107595e-01	-1.051128e+01	-3.475845e-02	3.738851e+00	1.486191e-05	1.036528e+01	-3.104224e-06	0.000000e+00	
6.896552e-02	-1.424051e-01	-1.051127e+01	-3.475881e-02	3.738851e+00	1.486191e-05	1.036528e+01	-3.154909e-06	0.000000e+00	
6.896552e-02	-1.740506e-01	-1.051126e+01	-3.475934e-02	3.738852e+00	1.486190e-05	1.036528e+01	-3.207913e-06	0.000000e+00	
6.896552e-02	-2.056962e-01	-1.051124e+01	-3.476010e-02	3.738853e+00	1.486189e-05	1.036528e+01	-3.263273e-06	0.000000e+00	
6.896552e-02	-2.373418e-01	-1.051121e+01	-3.476116e-02	3.738854e+00	1.486185e-05	1.036528e+01	-3.320985e-06	0.000000e+00	
6.896552e-02	-2.689873e-01	-1.051116e+01	-3.476264e-02	3.738855e+00	1.486177e-05	1.036528e+01	-3.380969e-06	0.000000e+00	
6.896552e-02	-3.006329e-01	-1.051110e+01	-3.476468e-02	3.738857e+00	1.486164e-05	1.036528e+01	-3.443058e-06	0.000000e+00	
6.896552e-02	-3.322785e-01	-1.051102e+01	-3.476747e-02	3.738860e+00	1.486143e-05	1.036528e+01	-3.506867e-06	0.000000e+00	
6.896552e-02	-3.639241e-01	-1.051090e+01	-3.477123e-02	3.738864e+00	1.486110e-05	1.036528e+01	-3.571772e-06	0.000000e+00	
6.896552e-02	-3.955696e-01	-1.051075e+01	-3.477625e-02	3.738870e+00	1.486059e-05	1.036527e+01	-3.636619e-06	0.000000e+00	
6.896552e-02	-4.272152e-01	-1.051055e+01	-3.478287e-02	3.738877e+00	1.485984e-05	1.036527e+01	-3.699806e-06	0.000000e+00	
6.896552e-02	-4.588608e-01	-1.051028e+01	-3.479147e-02	3.738886e+00	1.485875e-05	1.036527e+01	-3.758734e-06	0.000000e+00	
6.896552e-02	-4.905063e-01	-1.050995e+01	-3.480252e-02	3.738898e+00	1.485718e-05	1.036527e+01	-3.810422e-06	0.000000e+00	
6.896552e-02	-5.221519e-01	-1.050952e+01	-3.481648e-02	3.738914e+00	1.485496e-05	1.036527e+01	-3.850239e-06	0.000000e+00	
6.896552e-02	-5.537975e-01	-1.050899e+01	-3.483382e-02	3.738933e+00	1.485186e-05	1.036527e+01	-3.874237e-06	0.000000e+00	
6.896552e-02	-5.854430e-01	-1.050834e+01	-3.485493e-02	3.738958e+00	1.484758e-05	1.036527e+01	-3.875790e-06	0.000000e+00	
6.896552e-02	-6.170886e-01	-1.050757e+01	-3.488002e-02	3.738987e+00	1.484174e-05	1.036527e+01	-3.852929e-06	0.000000e+00	
6.896552e-02	-6.487342e-01	-1.050668e+01	-3.490897e-02	3.739021e+00	1.483385e-05	1.036527e+01	-3.796062e-06	0.000000e+00	
6.896552e-02	-6.803797e-01	-1.050569e+01	-3.494106e-02	3.739059e+00	1.482334e-05	1.036527e+01	-3.705189e-06	0.000000e+00	
6.896552e-02	-7.120253e-01	-1.050466e+01	-3.497468e-02	3.739101e+00	1.480951e-05	1.036527e+01	-3.540036e-06	0.000000e+00	
6.896552e-02	-7.436709e-01	-1.050367e+01	-3.500683e-02	3.739142e+00	1.479158e-05	1.036526e+01	-3.267792e-06	0.000000e+00	
6.896552e-02	-7.753165e-01	-1.050288e+01	-3.503247e-02	3.739177e+00	1.476885e-05	1.036526e+01	-2.715281e-06	0.000000e+00	
6.896552e-02	-8.069620e-01	-1.050252e+01	-3.504377e-02	3.739197e+00	1.474064e-05	1.036526e+01	-1.792039e-06	0.000000e+00	
6.896552e-02	-8.386076e-01	-1.050295e+01	-3.502880e-02	3.739185e+00	1.470714e-05	1.036526e+01	-1.044766e-07	0.000000e+00	
6.896552e-02	-8.702532e-01	-1.050469e+01	-3.497076e-02	3.739120e+00	1.466881e-05	1.036526e+01	2.201836e-06	0.000000e+00	
6.896552e-02	-9.018987e-01	-1.050847e+01	-3.484545e-02	3.738970e+00	1.462979e-05	1.036526e+01	5.907957e-06	0.000000e+00	
6.896552e-02	-9.335443e-01	-1.051523e+01	-3.462208e-02	3.738691e+00	1.459340e-05	1.036526e+01	1.013714e-05	0.000000e+00	
6.896552e-02	-9.651899e-01	-1.052621e+01	-3.425779e-02	3.738225e+00	1.457521e-05	1.036525e+01	1.810190e-05	0.000000e+00	
6.896552e-02	-9.968354e-01	-1.054269e+01	-3.370572e-02	3.737508e+00	1.457886e-05	1.036525e+01	2.695189e-05	0.000000e+00	
6.896552e-02	-1.028481e+00	-1.056651e+01	-3.290298e-02	3.736476e+00	1.464473e-05	1.036524e+01	4.795860e-05	0.000000e+00	
6.896552e-02	-1.060127e+00	-1.059979e+01	-3.178937e-02	3.735116e+00	1.474611e-05	1.036523e+01	6.497497e-05	0.000000e+00	
6.896552e-02	-1.091772e+00	-1.064450e+01	-3.034568e-02	3.733492e+00	1.494052e-05	1.036520e+01	1.238095e-04	0.000000e+00	
6.896552e-02	-1.123418e+00	-1.071351e+01	-2.830947e-02	3.732300e+00	1.502514e-05	1.036511e+01	1.717158e-04	0.000000e+00	
6.896552e-02	-1.155063e+00	-1.077113e+01	-2.669270e-02	3.730867e+00	1.487470e-05	1.036492e+01	4.787982e-04	0.000000e+00	
6.896552e-02	-1.186709e+00	-1.099225e+01	-2.168921e-02	3.745956e+00	1.120301e-05	1.036446e+01	6.470455e-04	0.000000e+00	
6.896552e-02	-1.218354e+00	-1.122879e+01	-8.837908e-03	3.675890e+00	4.298846e-05	1.036399e+01	1.541895e-03	0.000000e+00	
1.034483e-01	1.218354e+00	-1.380923e+01	-2.657664e-02	3.741054e+00	1.965123e-05	7.495073e+00	-8.234668e-04	0.000000e+00	
1.034483e-01	1.250000e+00	-1.790141e+01	-1.397850e-02	4.656337e+00	3.324105e-05	7.496101e+00	9.675138e-05	0.000000e+00	
1.034483e-01	1.186709e+00	-1.347455e+01	-3.677291e-02	3.746047e+00	1.179038e-05	7.494706e+00	-7.046387e-04	0.000000e+00	
1.034483e-01	1.155063e+00	-1.346005e+01	-3.752916e-02	3.749234e+00	1.841289e-05	7.494554e+00	-4.279179e-04	0.000000e+00	
1.034483e-01	1.123418e+00	-1.353303e+01	-3.533592e-02	3.749390e+00	2.067552e-05	7.494578e+00	-1.832499e-04	0.000000e+00	
1.034483e-01	1.091772e+00	-1.353040e+01	-3.545036e-02	3.749949e+00	2.200953e-05	7.494582e+00	-1.264340e-04	0.000000e+00	
1.034483e-01	1.060127e+00	-1.354776e+01	-3.491390e-02	3.749711e+00	2.240140e-05	7.494591e+00	-7.044068e-05	0.000000e+00	