TITLE = "Surface Analysis"
VARIABLES = "y(in)", "z(in)", "PT/PT<sub>inf</sub>", "TT/TT<sub>inf</sub>", "P/P<sub>inf</sub>", "T/T<sub>inf</sub>", "v<sub>x</sub>/v<sub>inf</sub>", "v<sub>y</sub>/v<sub>inf</sub>", "v<sub>z</sub>/v<sub>inf</sub>", "<greek>a</greek> (deg)", "<greek>b</greek> (deg)", "Mach", "Filtered <greek>a</greek> (deg)", "Filtered <greek>b</greek> (deg)", "Filtered Mach"
ZONE T= "outflow_2", NODES=720 , ELEMENTS= 684, DATAPACKING=POINT, ZONETYPE=FEQUADRILATERAL
 nan nan 2.781342323134e-309 nan nan nan nan nan nan nan nan 5.562684646268e-309 nan nan 1.04354483723018e-308
 nan nan 2.781342323134e-309 nan nan nan nan nan nan nan nan 5.60600193066237e-309 nan nan 2.15904213877361e-78
 nan nan 4.17172612970991e-309 nan nan nan nan nan nan nan nan 5.562684646268e-309 nan nan 5.22043151642555e-309
 nan nan 2.781342323134e-309 nan nan nan nan nan nan nan nan 5.562684646268e-309 nan nan 0.0127977520258215
 nan nan 2.781342323134e-309 nan nan nan nan nan nan nan nan 5.562684646268e-309 nan nan 0.0127977501818673
 nan nan 2.781342323134e-309 nan nan nan nan nan nan nan nan 5.60600194139523e-309 nan nan 0.012797749358496
 nan nan 2.9702188652434e-309 nan nan nan nan nan nan nan nan 6.40273078379332e-309 nan nan 0.124999176362841
 nan nan 2.781342323134e-309 nan nan nan nan nan nan nan nan 5.562684646268e-309 nan nan 0.124999176362841
 nan nan 2.781342323134e-309 nan nan nan nan nan nan nan nan 5.562684646268e-309 nan nan 0.124999171185591
 nan nan 2.781342323134e-309 nan nan nan nan nan nan nan nan 5.562684646268e-309 nan nan 5.38885075107213e-309
 nan nan 2.82465960752249e-309 nan nan nan nan nan nan nan nan 5.562684646268e-309 nan nan 4.31808427754722e-78
 nan nan nan nan 4.172013484701e-309 1.72723371101889e-77 -5.60600193041421e-309 -6.93076550215764e-310 0 -0 7.04778151293985 1.72723371101889e-77 nan nan 1.07952106938681e-77
 nan nan 1.1125369292536e-308 0 1.2516040454103e-308 0 1.72723371101889e-77 1.72723371101889e-77 290057.691307071 90 45 1.72723371101889e-77 nan nan 1.07952106938681e-77
 nan nan 6.40309077010256e-320 -1.85064274813573e-05 1.60077269252564e-320 1.56124744085834e-320 2.16365765520943e-314 6.40309077010256e-320 6.24498976343336e-320 0.00016537346177878 0.000169560131697206 2.18449349834402e-314 nan nan 2.15904213877361e-78
 nan nan 2.184440882329e-314 2.16365765520943e-314 6.40309077010256e-320 6.24498976343336e-320 1.97626258336499e-323 1.60077269252564e-320 1.56124744085834e-320 89.9274737355553 89.9292645056743 6.40309077010256e-320 nan nan 4.60631859600179e-309
 nan nan 3.3376107877608e-308 101312.945884347 3.4766779039175e-308 1.22498544350858 290057.714144449 1.72723371101889e-77 1.72723371101889e-77 3.41184519660172e-81 3.41184519660172e-81 3.6157450200742e-308 nan nan 2.01647318427295e-308
 nan nan 4.172013484701e-309 -6.09848543430469e-06 5.562684646268e-309 101312.945874547 1.22498544342374 8.34402696940201e-309 290057.714150627 89.9997580257568 3.90272008583122e-307 6.953355807835e-309 nan nan 2.29514888264048e-308
 nan nan 8.90029543402881e-308 0 9.45656389865561e-308 0 0 1.05691008279092e-307 1 90 90 1.00128323632824e-307 nan nan 2.15904213877361e-78
 nan nan 1.22379062217896e-307 1.22499131810399 1.27941746864164e-307 290057.710637649 1.72723371101889e-77 -3.11108100576121e+231 0.341375267005788 90 -90 1.72723371101889e-77 nan nan 8.63616855509444e-78
 nan nan 3.3376107877608e-308 0 3.4766779039175e-308 1 0.341273686406356 3.7548121362309e-308 101313.425253991 89.9998069994984 6.30388151327815e-306 3.6157450200742e-308 nan nan 2.15904213877361e-78
 nan nan 1.6688053938804e-308 0 1.8078725100371e-308 0 0 2.0860067423505e-308 1 90 90 1.9469396261938e-308 nan nan 4.31808427754722e-78
 nan nan 2.5032080908206e-308 1.22498544252937 2.6422752069773e-308 290057.7141852 1.72723371101889e-77 2.68678199543102e+154 3.95252516672997e-323 1.31113125588129e-244 90 1.72723371101889e-77 nan nan 8.63616855509444e-78
 nan nan 5.562684646268e-309 101312.945762616 6.953355807835e-309 1.22498544246586 290057.714186794 1.72723371101889e-77 2.68678199543215e+154 90 3.41184519610363e-81 8.34402696940201e-309 nan nan 0.0127977520258215
 nan nan 0.999993540101932 0.999811625931169 0.999656834668991 0.999811625931169 1.00817276740629 -0.177758094495352 0 0 -9.99945071798486 0.102382016206572 nan nan 0.0639887582851532
 nan nan 0.999993538539408 0.999811626152987 0.999656835216268 0.999811626152987 1.00817262151694 -0.177758073096479 0 0 -9.99945095630962 0.102382001454938 nan nan 0.0767865021117866
 nan nan 0.99999353815443 0.999811626373429 0.999656835773264 0.999811626373429 1.0081725560469 -0.177758065752894 0 0 -9.99945118779915 0.102381994867968 nan nan 0.188987923978692
 nan nan 2.00256647265648e-307 1 0.98397502863096 -0.577233536725411 0.999811632704803 0.999656842828839 0.999811632704803 45 44.9955644178966 0.999993410902729 nan nan 0.637793631172702
 nan nan 2.67008863020864e-307 1 1.01214385871733 -0.593496818358531 0.999811632704803 0.999656842828839 0.999811632704803 45 44.9955644178966 0.999993410902729 nan nan 0.749995052999797
 nan nan 3.3376107877608e-307 1 1.03956111342246 -0.609326177742982 0.999811634635436 0.999656843735527 0.999811634635436 45 44.9955643885613 0.999993369484731 nan nan 0.624995861105207
 nan nan 6.953355807835e-309 290057.689786209 8.34402696940201e-309 340.264882663974 0 1.1125369292536e-308 0 nan 90 9.73469813096901e-309 nan nan 0.124999171185591
 nan nan 1.24604136076403e-306 288.095562563866 1.72723371101889e-77 4.33172951403517e-311 34.3192642447539 2.781342323134e-309 6.05110836365605 9.99950797016297 4.64343219482183e-309 1.72723371101889e-77 nan nan 8.63616855509444e-78
 nan nan 6.953355807835e-309 290057.689901474 8.34402696940201e-309 340.264882699403 0 1.1125369292536e-308 0 nan 90 9.73469813096901e-309 nan 40.2559718015105 4.31808427754722e-78
 nan nan 6.93076550330782e-310 6.93076722054404e-310 6.93076550268411e-310 6.93076550333628e-310 6.93076550255921e-310 -6.93076722046499e-310 6.93076550125251e-310 44.9999999945988 -45.0000071008562 6.93076550233155e-310 nan -11.2499823543775 2.15904213877361e-78
 nan nan 6.930765500579e-310 6.93076550273629e-310 6.9307655021355e-310 6.9307655017363e-310 6.93076550316237e-310 -6.93076550116081e-310 6.93076550296158e-310 44.9999999991701 -44.9999999917267 6.93076550140191e-310 44.9909548876628 -22.50882162531 5.19810164734267e-310
 nan nan 6.930767222412e-310 6.93076722231872e-310 6.93076722218592e-310 6.9307672206808e-310 6.93076722093376e-310 -6.93076722106024e-310 6.93076722117723e-310 45.0000000010064 -45.0000000005228 6.93076722081202e-310 nan -5.63382074100149 1.6500129262122e-309
 nan nan 6.953355807835e-309 290057.691102509 8.34402696940201e-309 340.264883429442 0 1.1125369292536e-308 0 nan 90 9.73469813096901e-309 nan 50.6161580631439 1.1912754124137e-308
 nan nan 1.6688053938804e-308 288.095563849748 1.8078725100371e-308 1.2247868620157 290057.687930602 2.0860067423505e-308 340.264884265248 0.0672132946414505 4.12053833917409e-312 1.95127135463323e-308 nan 11.25 4.03511223276402e-308
 nan nan 2.5032080908206e-308 0 2.6422752069773e-308 0 288.095565274752 2.33632755143256e-307 6.05109276740081 1.20325040988501 4.64643418337793e-308 2.2250738585072e-307 nan 22.5 8.85858426517582e-307
 nan nan 5.51818316909786e-306 1.22478684986932 1.72723371101889e-77 1.73059625440546e-77 290057.68990486 6.40821271250074e-306 340.264882561019 0.0672132938473282 1.26582936921555e-309 6.06329011994295e-306 11.4340129481593 5.80804272922241e-309 2.15904213877361e-78
 nan nan 1.72723371101889e-77 1.73059625440546e-77 7.84334920674871e-306 0 0 8.54428361666765e-306 1 90 90 8.19936102411123e-306 56.2583775366682 67.5 4.8654143023323e-306
 nan nan 2.781342323134e-309 0 4.172013484701e-309 0 -3.11108100576318e+231 -4.33172843871661e-311 -3.11108100572857e+231 44.9999999996813 0 1.72723371101889e-77 28.1249999998407 22.5 8.63616855509444e-78
 nan nan 4.172013484701e-309 1.22478686156874 5.562684646268e-309 290057.688736878 340.264884293799 8.34402696940201e-309 0 0 1.40501577317423e-309 6.953355807835e-309 nan 3.63552068879902e-79 4.31808427754722e-78
 nan nan 2.781342323134e-309 1.22478686507408 4.172013484701e-309 290057.691336885 340.264883442299 1.72723371101889e-77 1.49457209538536e-154 2.51664739473848e-155 2.90841655103922e-78 5.562684646268e-309 33.7499697532196 11.25 7.12718970303088e-309
 nan nan 1.11686865769226e-308 0 1.2516040454103e-308 0 0 1.5297382777237e-308 1 90 90 1.390671161567e-308 nan 66.2500686602519 0.0127977520258215
 nan nan 2.781342323134e-309 0 4.172013484701e-309 0 0 1.72723371101889e-77 1.72723371101889e-77 90 90 5.562684646268e-309 56.25 55.0000686304613 0.0127977501818673
 nan nan 1.72723371101889e-77 2.32035021833303e+77 1.72723371101889e-77 290057.689846039 340.264882659017 8.34402696940201e-309 0 0 1.40501577992452e-309 6.953355807835e-309 8.65961591749453e-05 -1.24993139847489 0.012797749358496
 nan nan 1.2516040454103e-308 0 2.0860067423505e-308 288.09556256439 1.72723371101889e-77 -3.11108100576226e+231 -3.11108100572856e+231 -90 -90 1.72723371101889e-77 -33.1568543615958 -39.3755544477629 0.124999176362841
 nan nan 4.172013484701e-309 1.22478684980565 5.562684646268e-309 290057.68973827 340.264882625302 8.34402696940201e-309 0 0 1.4050157800638e-309 6.953355807835e-309 nan 5.62444555223708 0.124999176362841
 nan nan 2.781342323134e-309 288.113899406742 4.172013484701e-309 340.275711053828 0 6.953355807835e-309 0 nan 90 5.562684646268e-309 nan 61.87444554857 0.124999171185591
 nan nan 1.1125369292536e-308 1 1.2516040454103e-308 0.34132170480633 101313.427336684 1.5297382777237e-308 1.22499168952058 0.000692769513279466 8.65112842180377e-312 1.390671161567e-308 nan 33.75 1.28637082444948e-308
 nan nan -2.32035021833323e+77 288.113899163902 2.0860067423505e-308 340.275711165782 0 2.3641409746639e-308 0 nan 90 2.2250738585072e-308 nan 45 2.15904213877361e-78
 nan nan 2.781342323134e-308 1 2.9204094392907e-308 101313.426505551 1.22499167870989 3.1985436716041e-308 290057.712418509 89.9997580245237 1.49603508461542e-306 3.0594765554474e-308 nan 33.7500211950165 2.27722430008819e-308
 nan nan 6.40309077010256e-320 -2.05366605381396e-05 1.60077269252564e-320 1.56124744085834e-320 2.16365765520943e-314 6.40309077010256e-320 6.24498976343336e-320 0.00016537346177878 0.000169560131697206 2.18417780225391e-314 39.3659564092852 5.61624195566811 8.43067245907816e-309
 nan nan 2.18412518623889e-314 2.16365765520943e-314 6.40309077010256e-320 6.24498976343336e-320 1.97626258336499e-323 1.60077269252564e-320 1.56124744085834e-320 89.9274737355553 89.9292645056743 6.40309077010256e-320 50.5888648071985 39.3396746439042 7.81975609830235e-310
 nan nan 6.40309077010256e-320 -1.90167149862752e-05 1.60077269252564e-320 1.56124744085834e-320 2.16365765520943e-314 6.40309077010256e-320 6.24498976343336e-320 0.00016537346177878 0.000169560131697206 2.18401995420885e-314 nan 28.1074009064191 7.81981091159429e-310
 nan nan 2.18396733819383e-314 2.16365765520943e-314 6.40309077010256e-320 6.24498976343336e-320 1.97626258336499e-323 1.60077269252564e-320 1.56124744085834e-320 89.9274737355553 89.9292645056743 6.40309077010256e-320 nan 56.2146534478536 3.65051452917034e-309
 nan nan 2.781342323134e-309 -1.95251012237572e-05 4.172013484701e-309 101312.945734354 1.22498544221885 6.953355807835e-309 290057.714196488 89.9997580257571 3.2522667413916e-307 5.562684646268e-309 nan 33.7411580632093 9.7401127915263e-309
 nan nan 1.1125369292536e-308 0 1.2516040454103e-308 0 0 1.5297382777237e-308 0 nan 90 1.390671161567e-308 nan 45 4.20678026374018e-308
 nan nan 1.9469396261938e-308 -1.79941255568605e-05 2.0860067423505e-308 101312.945729058 1.22498544217382 1.72723371101889e-77 -2.68678199672696e+154 -90 8.07872473149429e-76 2.2250738585072e-308 nan 33.75 7.72339478294126e-307
 nan nan 4.172013484701e-309 0 5.562684646268e-309 0 0 1.72723371101889e-77 -2.32035021833417e+77 -90 90 6.953355807835e-309 -28.1250000000398 67.5 2.15904213877361e-78
 nan nan 1.6688053938804e-308 nan nan nan 1.72723371101889e-77 -6.953355807835e-309 1.72723371101889e-77 45 -2.30656649821124e-230 5.562684646268e-309 nan 0 2.15904213877361e-78
 nan nan 2.5032080908206e-308 nan nan nan 0 -4.172013484701e-309 0 nan -90 2.82465960752598e-309 nan -45 1.13208618299279e-308
 nan nan 2.781342323134e-309 -1.74797049815857e-05 4.172013484701e-309 101312.945728422 1.22498544216855 6.953355807835e-309 290057.714196166 89.9997580257571 3.25226674152515e-307 5.562684646268e-309 nan 0 1.5302797437786e-308
 nan nan 1.1125369292536e-308 0 1.2516040454103e-308 0 0 1.5297382777237e-308 0 nan 90 1.390671161567e-308 nan 56.25 2.46844131178143e-308
 nan nan 1.9469396261938e-308 1.22498544218281 2.0860067423505e-308 290057.714194885 340.275770079853 1.72723371101889e-77 1.72723371101889e-77 2.90832350040314e-78 2.90832350040314e-78 2.2250738585072e-308 nan 22.5 1.47758810916494e-308
 nan nan 4.172013484701e-309 1 5.562684646268e-309 -1.6444156219585e-05 101312.945728882 8.34402696940201e-309 1.22498544217295 0.000692769273394521 4.71881975237626e-312 6.953355807835e-309 17.4684920230409 11.25 8.51786086459788e-309
 nan nan 2.781342323134e-309 101312.94572836 4.172013484701e-309 1.22498544216823 288.113999119868 6.953355807835e-309 340.275770080655 49.7451651072338 1.38277883913571e-309 5.562684646268e-309 nan 1.09560023693943e-307 2.15904213877361e-78
 nan nan 1.1125369292536e-308 0 1.2516040454103e-308 0 1 1.5297382777237e-308 -1.48732529283184e-05 -0.0008521746203604 8.76475470731795e-307 1.390671161567e-308 6.21771955109405 11.2499999999999 2.16324531904954e-78
 nan nan 1.9469396261938e-308 290057.714193525 1.72723371101889e-77 1.72723371101889e-77 5.43472210425371e-323 2.781342323134e-309 0 0 89.9999999999989 1.73059625523963e-77 nan 67.4999999999994 8.65298127619815e-78
 nan nan 6.953355807835e-309 1 8.34402696940201e-309 -1.53992599418438e-05 101312.94573173 1.1125369292536e-308 1.22498544219795 0.000692769273389186 6.29175966974278e-312 9.73469813096901e-309 11.2504893300508 11.2499999999999 2.16324531904954e-78
 nan nan 1.6688053938804e-308 34.3136942956498 1.8078725100371e-308 -2.87371727355739e-06 101312.945917406 2.0860067423505e-308 1.22498544386089 0.000692769273060006 1.17970493592857e-311 1.9469396261938e-308 nan 28.1256939158848 7.4347177817913
 nan nan 2.5032080908206e-308 340.275770161423 2.6422752069773e-308 0 0 2.9204094392907e-308 0 nan 90 2.781342323134e-308 nan 50.6250112843636 7.44159564383696
 nan nan 3.3376107877608e-308 2.26663727819623e-06 3.4766779039175e-308 101312.945978905 1.22498544458666 3.7548121362309e-308 290057.714389062 89.9997580257568 1.7562240369568e-306 3.6157450200742e-308 nan 16.8795248637174 5.91292138881447
 nan nan 2.781342323134e-309 1 4.172013484701e-309 -1.15353024942629e-06 101312.945922341 6.953355807835e-309 1.22498544392111 0.000692769273060314 3.93234978633636e-312 5.562684646268e-309 nan 28.116231767447 5.94837252777978
 nan nan 2.781342323134e-309 288.113999122086 4.172013484701e-309 340.275770081759 0 6.953355807835e-309 0 nan 90 5.562684646268e-309 nan 50.6250223980008 5.94895700557169
 nan nan 1.1125369292536e-308 1 1.2516040454103e-308 -1.43449230557155e-05 101312.945737094 1.5297382777237e-308 1.22498544224466 0.00069276927337893 8.65116954550602e-312 1.390671161567e-308 nan 44.9911580632093 1.1125369292544e-308
 nan nan 4.33172951328518e-311 288.113999120891 2.0860067423505e-308 340.275770083174 0 2.3641409746639e-308 0 nan 90 2.2250738585072e-308 nan 56.25 1.91217284715463e-308
 nan nan 2.781342323134e-308 1 2.9204094392907e-308 -1.38143874844808e-05 101312.945740769 3.1985436716041e-308 1.2249854422766 0.000692769273371856 1.80888090491271e-311 3.0594765554474e-308 nan 33.75 2.32937419562473e-308
 nan nan 2.781342323134e-309 0 4.172013484701e-309 0 0 6.953355807835e-309 0 nan 90 5.562684646268e-309 nan 67.5 1.49497149868453e-308
 nan nan 1.1125369292536e-308 340.275770086982 1.2516040454103e-308 0 0 1.72723371101889e-77 4.33172843877935e-311 90 90 1.390671161567e-308 nan 67.5 1.40805455108659e-308
 nan nan 1.72723371101889e-77 -3.11108100576155e+231 -2.32035021833323e+77 288.113899882883 340.275711488259 4.7282819493278e-308 0 0 7.96150271376995e-309 4.4501477170144e-308 28.1329438224459 -2.88320812276405e-231 9.66516457289066e-308
 nan nan 5.562684646268e-308 0 5.8408188785814e-308 1 290057.712251351 6.3970873432082e-308 340.275711497777 0.0672154277314243 1.26363165144349e-311 6.1189531108948e-308 nan -22.5 1.24122815830404e-307
 nan nan 1.72723371101889e-77 2.00389355923764 -2.32035021833323e+77 288.113899897784 340.27571150842 8.06589273708861e-308 0 0 1.35813869815084e-308 7.7877585047752e-308 33.7579196988431 1.26484629244904e-306 1.59927183580205e-307
 nan nan 8.90029543402881e-308 0 9.45656389865561e-308 1 0.341255401579617 1.05691008279092e-307 101313.425423897 89.9998070098394 1.77452098306535e-305 1.00128323632824e-307 nan 11.25 6.2580202270515e-308
 nan nan 1.72723371101889e-77 1.72723371101889e-77 -3.11108100576121e+231 0.341256470146618 101313.425386904 4.172013484701e-309 1.22499166355521 0.000692769511927641 2.35939870575913e-312 2.781342323134e-309 11.2503225246087 11.25 2.90043777291763e+76
 nan nan 2.781342323134e-309 0 4.172013484701e-309 0 0 1.72723371101889e-77 1.72723371101889e-77 90 90 5.562684646268e-309 nan 67.5 8.51786086459788e-309
 nan nan 1.1125369292536e-308 340.275711479979 1.2516040454103e-308 0 0 1.5297382777237e-308 0 nan 90 1.390671161567e-308 nan 61.8819646112383 2.15904213877361e-78
 nan nan 1.9469396261938e-308 1.22499166438057 2.0860067423505e-308 290057.712218839 340.275711481849 2.3641409746639e-308 0 0 3.98075135695999e-309 2.2250738585072e-308 nan 22.5 1.9469396261938e-308
 nan nan 2.781342323134e-308 340.275711480009 2.9204094392907e-308 0 0 3.1985436716041e-308 0 nan 90 3.0594765554474e-308 nan 67.4999999999999 2.16324531904954e-78
 nan nan 3.6157450200742e-308 0.341278619266255 3.7548121362309e-308 101313.425387189 1.22499166371721 4.0329463685443e-308 290057.712225543 89.9997580245265 1.8863051297755e-306 3.8938792523876e-308 nan 16.8756939158848 7.4347177817913
 nan nan 59.31301840547 59.3770236345044 59.4225324755855 59.4548292888395 59.4939951978666 59.505524934719 59.5137038934774 45.0094886723843 45.0055513270788 59.4777422543304 nan 39.377786947903 37.1804667710021
 nan nan 59.530084784535 59.531127677687 59.531867618002 59.5323926251143 59.5330294972705 59.5332170973801 59.5333502466056 45.0001543473751 45.0000902749085 59.5327651506957 nan 45.00524272204 43.1140217459536
 nan nan 59.5336174479343 59.5336338619971 41.6207505867177 35.4536742653741 47.3850647427002 47.4446966231776 47.4873443613226 45.061769151456 45.0360293496074 47.3033711105158 45.0309459981992 33.768099663405 37.0416537268746
 nan nan 47.5729746562103 47.5784248449175 47.5822913244371 47.5850342534824 47.5883607862882 47.5893402650511 47.5900351926991 45.0010079642501 45.0005896339018 47.5869802222383 39.3833137527873 39.3792452496356 35.7803676979517
 nan nan 47.5914276006682 47.5915163729503 47.5915794053915 47.5916241830959 47.5916787442314 47.5916947320211 47.5917057307407 45.0000162445693 45.0000096238748 47.5916560445735 nan 56.2495240772709 29.8691997401513
 nan nan 2.781342323134e-309 0 4.172013484701e-309 0 0 1.72723371101889e-77 2.68678199543026e+154 90 90 5.562684646268e-309 nan 67.4994467624467 6.07395619200981
 nan nan 1.1125369292536e-308 340.275711415715 1.2516040454103e-308 0 0 1.5297382777237e-308 0 nan 90 1.390671161567e-308 nan 73.1244455562357 0.124999181695376
 nan nan 1.9469396261938e-308 0.341263786721316 2.0860067423505e-308 101313.42523542 1.22499166229816 2.3641409746639e-308 290057.712268597 89.9997580245268 1.10576507735623e-306 2.2250738585072e-308 nan 28.1244455522371 0.124999176362841
 nan nan 2.781342323134e-308 340.275711417977 2.9204094392907e-308 0 0 3.1985436716041e-308 0 nan 90 3.0594765554474e-308 nan 56.25 2.43367453274225e-308
 nan nan 3.6157450200742e-308 0.341263308741918 3.7548121362309e-308 101313.425240454 1.22499166234073 4.0329463685443e-308 290057.712267897 89.9997580245268 1.88630513189507e-306 3.8938792523876e-308 nan 22.5 3.23331045064328e-308
 nan nan 1.6688053938804e-308 nan nan nan 6.05110727580067 -5.11766987456656e-307 101290.038867273 89.9965771273094 -4.84573932322347e-306 4.89516248871584e-307 nan -22.5 3.34456414356864e-307
 nan nan 2.5032080908206e-308 nan nan nan 0 -6.45271418967088e-307 0 nan -90 6.23020680382016e-307 nan -33.75 2.15904213877361e-78
 nan nan 3.3376107877608e-308 nan nan nan 6.05110708668103 -8.45528066232737e-307 101290.038889307 89.9965771274171 -8.00600434945623e-306 8.01026589062592e-307 nan 0 4.89516248871584e-307
 nan nan 2.781342323134e-309 0 4.172013484701e-309 0 1 6.953355807835e-309 -1.00714726608535e-05 -0.00057705287692879 3.98397941241725e-307 5.562684646268e-309 22.4992597543414 11.25 2.90043777291763e+76
 nan nan 1.1125369292536e-308 290057.714181715 1.72723371101889e-77 1.72723371101889e-77 -1.06050995256624e-05 2.781342323134e-309 288.113999166623 -89.9999978910173 -1.50266554416647e-302 2.3203502183341e+77 -22.4999844809293 4.97997426552156e-308 1.16017510916705e+77
 nan nan 1.9469396261938e-308 0 2.0860067423505e-308 0 0 2.3641409746639e-308 1 90 90 2.2250738585072e-308 56.2500002636228 73.1319646112383 2.90043777291763e+76
 nan nan 2.781342323134e-308 1.22498544294413 2.9204094392907e-308 290057.714176295 1.72723371101889e-77 1.73059625523963e-77 5.43472210425371e-323 1.80280547683677e-244 45.0557168899065 1.72723371101889e-77 nan 56.2778584449532 1.07952106938681e-77
 nan nan 5.562684646268e-309 0 6.953355807835e-309 1 -9.0130846708007e-06 9.73469813096901e-309 101312.94580692 -89.9999999949028 -6.18830442751033e-302 8.34402696940201e-309 nan 16.8819646112383 2.15904213877361e-78
 nan nan 2.781342323134e-309 288.113999182743 4.172013484701e-309 340.275770121703 0 6.953355807835e-309 0 nan 90 5.562684646268e-309 nan 67.5 1.00823659213608e-308
 nan nan 1.1125369292536e-308 1 1.2516040454103e-308 290057.714173904 340.275770127215 1.5297382777237e-308 0 0 2.57577984587076e-309 1.390671161567e-308 nan 33.75 1.70357217291958e-308
 nan nan -2.32035021833323e+77 288.113999187946 2.0860067423505e-308 340.275770132969 0 2.3641409746639e-308 0 nan 90 2.2250738585072e-308 nan 50.6256939158848 7.4347177817913
 nan nan 2.781342323134e-308 1 2.9204094392907e-308 -7.01026456315832e-06 101312.945852754 3.1985436716041e-308 1.22498544324205 0.000692769273152116 1.80888090290285e-311 3.0594765554474e-308 nan 28.1250112843636 7.44159564383696
 nan nan 1.494572095386e-154 4.44659081257122e-323 2.781342323134e-309 0 1 5.562684646268e-309 -7.4867226865829e-06 -0.000428957612318031 3.1871835299338e-307 4.172013484701e-309 11.257593261285 11.2539492297004 6.03792058126085
 nan nan 2.02086162210577e-307 1 0.863599088181781 0.320083385131686 0.999811625906777 0.999656838477939 0.999811625906777 45 44.9955644879955 0.999993539571013 22.5000723758297 33.7473015093312 6.57336848765001
 nan nan 2.68838460310713e-307 1 0.901037897969287 0.333709997500693 0.99981162687874 0.999656839476636 0.99981162687874 45 44.995564488766 0.999993520677807 50.6250020305712 50.6216745678292 6.69895214479509
 nan nan 3.35590868368838e-307 1 0.937006786811615 0.34680160239893 0.999811628467596 0.999656840609281 0.999811628467596 45 44.995564475699 0.999993491504939 56.25 56.246673355181 0.749995117532571
 nan nan 4.48674350886956e-307 1 0.971666391579676 0.359416666865935 0.999811630517074 0.999656841757691 0.999811630517074 45 44.9955644498856 0.99999345356301 nan 44.9966733366422 0.749995089582463
 nan nan 5.82179337743813e-307 1 1.00515006224172 0.371603726320891 0.999811632704803 0.999656842828839 0.999811632704803 45 44.9955644178966 0.999993410902729 50.6250563492546 39.372227765184 0.624995887146741
 nan nan 2.781342323134e-309 1 4.172013484701e-309 0.341260152277537 101313.425175378 6.953355807835e-309 1.22499165832728 0.000692769510417478 3.93233118466104e-312 5.562684646268e-309 nan 16.8744455522371 0.124999176362841
 nan nan 2.3203502183341e+77 34.3148395461031 2.781342323134e-309 288.113900545044 340.275712004895 1.5297382777237e-308 0 0 2.57578028583828e-309 1.390671161567e-308 11.2496284901683 4.26480651924112e-82 7.47485749342263e-308
 nan nan 3.3376107877608e-308 nan nan nan 0 -3.7548121362309e-308 1 90 -90 3.6157450200742e-308 56.2496587370718 -33.75 2.15904213877361e-78
 nan nan 4.172013484701e-308 nan nan nan 1.73059625440456e-77 2.32035021833323e+77 288.113901030272 90 90 1.72723371101889e-77 nan 22.5 8.63616855509444e-78
 nan nan 2.781342323134e-309 0 4.172013484701e-309 0 0 6.953355807835e-309 288.113999239926 90 90 5.562684646268e-309 89.9995418939838 67.5 2.15904213877361e-78
 nan nan 1.1125369292536e-308 0 1.2516040454103e-308 0 0 1.5297382777237e-308 1 90 90 1.390671161567e-308 78.7499036683244 45 2.15904213877361e-78
 nan nan 1.9469396261938e-308 101312.945890379 2.0860067423505e-308 1.22498544355674 1.72723371101889e-77 -2.32035021833323e+77 288.113999247551 90 -90 1.72723371101889e-77 67.4999761388464 -22.5 2.90043777291763e+76
 nan nan 2.781342323134e-308 0 2.9204094392907e-308 0 0 3.1985436716041e-308 1 90 90 3.0594765554474e-308 67.5 56.25 4.31808427754722e-78
 nan nan 3.6157450200742e-308 1.22498544365948 3.7548121362309e-308 290057.714169928 1.72723371101889e-77 2.68678199543102e+154 3.95252516672997e-323 1.31113125588129e-244 90 1.72723371101889e-77 22.4999758752588 61.8819646112383 1.07952106938681e-77
 nan nan 5.562684646268e-309 101312.945898496 6.953355807835e-309 1.22498544364006 290057.714150639 1.72723371101889e-77 1.72723371101889e-77 3.41184519652891e-81 3.41184519652891e-81 8.34402696940201e-309 6.371490002266e-10 22.5 2.15904213877361e-78
 nan nan 2.781342323134e-309 0 4.172013484701e-309 0 0 6.953355807835e-309 288.11399925886 90 90 5.562684646268e-309 nan 67.5 1.390671161567e-308
 nan nan 1.1125369292536e-308 0 1.2516040454103e-308 0 0 1.5297382777237e-308 1 90 90 1.390671161567e-308 67.4999758752938 56.25 2.15904213877361e-78
 nan nan 1.9469396261938e-308 101312.945995324 2.0860067423505e-308 1.22498544469045 2.68678199543026e+154 4.33172951328518e-311 288.113999262452 6.14404749043671e-151 0 1.72723371101889e-77 nan 33.75 8.63616855509444e-78
 nan nan 2.781342323134e-308 0 2.9204094392907e-308 0 0 3.1985436716041e-308 1 90 90 3.0594765554474e-308 56.2500159049194 45 4.31808427754722e-78
 nan nan 3.6157450200742e-308 1.22498544631956 3.7548121362309e-308 290057.714838107 -2.68678199543079e+154 1.72723371101889e-77 3.95252516672997e-323 -0 -3.68333575416243e-230 1.72723371101889e-77 6.21809258645637 11.25 8.63616855509444e-78
 nan nan 5.562684646268e-309 101312.946194351 6.953355807835e-309 1.22498544670398 290057.714792737 1.72723371101889e-77 -3.11108100726206e+231 -90 3.41184518897614e-81 8.34402696940201e-309 -25.7690612162353 16.8744455609994 0.124999192446377
 nan nan 2.781342323134e-309 0 4.172013484701e-309 0 0 6.953355807835e-309 288.11399937788 90 90 5.562684646268e-309 50.625 73.1244455610956 0.124999190084726
 nan nan 1.1125369292536e-308 0 1.2516040454103e-308 0 0 1.5297382777237e-308 1 90 90 1.390671161567e-308 61.8750865961891 61.8744455594624 0.124999186438117
 nan nan 1.9469396261938e-308 101312.94705184 2.0860067423505e-308 1.22498545367639 2.68678199543026e+154 4.33172951328518e-311 288.11399962008 6.14404749806315e-151 0 1.72723371101889e-77 30.4805528725505 28.1244455562357 0.124999181695376
 nan nan 2.781342323134e-308 0 2.9204094392907e-308 0 0 3.1985436716041e-308 1 90 90 3.0594765554474e-308 61.8665158242349 50.6244455522371 2.90043777291763e+76
 nan nan 3.6157450200742e-308 1.22498545156276 3.7548121362309e-308 290057.709412463 -2.68678199543079e+154 1.72723371101889e-77 3.95252516672997e-323 -0 -3.68333575416243e-230 1.72723371101889e-77 11.2500865961888 22.5 8.63616855509444e-78
 nan nan 5.562684646268e-309 101312.947520413 6.953355807835e-309 1.22498545584793 290057.712546919 1.72723371101889e-77 -2.32035021833417e+77 -90 3.41184521539289e-81 8.34402696940201e-309 -22.5 -22.5 4.31808427754722e-78
 nan nan 1.6688053938804e-308 nan nan nan 101312.954489462 -2.0860067423505e-308 1.22498553302148 0.00069276926486824 -1.17970483611546e-311 1.9469396261938e-308 nan -33.75 2.15904213877361e-78
 nan nan 2.5032080908206e-308 nan nan nan 0 -2.9204094392907e-308 0 nan -90 2.781342323134e-308 nan -33.75 2.15904213877361e-78
 nan nan 3.3376107877608e-308 nan nan nan 1.22499202263656 -3.7548121362309e-308 290057.709979725 89.9997580244537 -1.75621460625919e-306 3.6157450200742e-308 nan 0 2.46844131178143e-308
 nan nan 4.172013484701e-308 nan nan nan 0.342334998923017 -6.953355807835e-309 101313.5181058 89.9998063994718 -1.16376631806588e-306 5.562684646268e-309 78.7498488280162 11.25 1.42543794060618e-308
 nan nan 1.6688053938804e-308 0 1.8078725100371e-308 1 0.341269637117861 2.0860067423505e-308 101313.425217617 89.9998070017884 3.50219795062636e-306 1.9469396261938e-308 67.4999658970172 -11.25 2.15904213877361e-78
 nan nan 1.72723371101889e-77 -2.00389355923854 -2.32035021833323e+77 288.113899763674 340.275711408236 2.9204094392907e-308 0 0 4.9173987361318e-309 2.781342323134e-308 33.7499517504823 11.25 2.95517621832988e-308
 nan nan 3.3376107877608e-308 0 3.4766779039175e-308 1 0.341269139018304 3.7548121362309e-308 101313.425216056 89.9998070020701 6.3039655120703e-306 3.6157450200742e-308 56.2498793757591 11.25 2.15904213877361e-78
 nan nan 1.72723371101889e-77 -2.00389355923889 -2.32035021833323e+77 288.113899763674 340.275711407204 4.7282819493278e-308 0 0 7.96150271566629e-309 4.4501477170144e-308 24.8554020307608 4.26480649566113e-82 3.6157450200742e-308
 nan nan 5.562684646268e-308 0 5.8408188785814e-308 1 0.341268149311614 6.3970873432082e-308 101313.425214672 89.9998070026298 1.07401205381083e-305 6.1189531108948e-308 78.7413958566128 11.25 2.90043777291763e+76