TITLE = "Visualization of the volumetric solution"
VARIABLES = "x","y","Density","Momentum_x","Momentum_y","Energy","Pressure","Temperature","Mach","C<sub>p</sub>","Roe_Dissipation"
ZONE NODES= 4800, ELEMENTS= 4661, DATAPACKING=POINT, ZONETYPE=FEQUADRILATERAL
-3.000000e+00	1.000000e+00	1.224946e+00	2.085672e+01	-5.931933e-10	2.534884e+05	1.013243e+05	2.881557e+02	5.003416e-02	-3.784991e-03	0.000000e+00	
-3.000000e+00	9.661017e-01	1.224946e+00	2.085672e+01	-7.629169e-08	2.534884e+05	1.013243e+05	2.881557e+02	5.003416e-02	-3.785015e-03	0.000000e+00	
-2.962025e+00	9.661017e-01	1.224946e+00	2.085672e+01	-1.028983e-07	2.534884e+05	1.013243e+05	2.881557e+02	5.003416e-02	-3.785303e-03	0.000000e+00	
-2.962025e+00	1.000000e+00	1.224946e+00	2.085672e+01	9.506762e-10	2.534884e+05	1.013243e+05	2.881557e+02	5.003416e-02	-3.785287e-03	0.000000e+00	
-3.000000e+00	9.322034e-01	1.224946e+00	2.085672e+01	-8.585175e-08	2.534884e+05	1.013243e+05	2.881557e+02	5.003417e-02	-3.785031e-03	0.000000e+00	
-2.962025e+00	9.322034e-01	1.224946e+00	2.085672e+01	-1.314248e-07	2.534884e+05	1.013243e+05	2.881557e+02	5.003417e-02	-3.785303e-03	0.000000e+00	
-3.000000e+00	8.983051e-01	1.224946e+00	2.085672e+01	-6.074087e-08	2.534884e+05	1.013243e+05	2.881557e+02	5.003417e-02	-3.785044e-03	0.000000e+00	
-2.962025e+00	8.983051e-01	1.224946e+00	2.085672e+01	-1.152508e-07	2.534884e+05	1.013243e+05	2.881557e+02	5.003417e-02	-3.785309e-03	0.000000e+00	
-3.000000e+00	8.644068e-01	1.224946e+00	2.085672e+01	-2.915303e-08	2.534884e+05	1.013243e+05	2.881557e+02	5.003417e-02	-3.785052e-03	0.000000e+00	
-2.962025e+00	8.644068e-01	1.224946e+00	2.085672e+01	-7.948351e-08	2.534884e+05	1.013243e+05	2.881557e+02	5.003417e-02	-3.785312e-03	0.000000e+00	
-3.000000e+00	8.305085e-01	1.224946e+00	2.085672e+01	-7.518688e-09	2.534884e+05	1.013243e+05	2.881557e+02	5.003417e-02	-3.785057e-03	0.000000e+00	
-2.962025e+00	8.305085e-01	1.224946e+00	2.085672e+01	-4.845357e-08	2.534884e+05	1.013243e+05	2.881557e+02	5.003417e-02	-3.785316e-03	0.000000e+00	
-3.000000e+00	7.966102e-01	1.224946e+00	2.085672e+01	2.282661e-09	2.534884e+05	1.013243e+05	2.881557e+02	5.003417e-02	-3.785059e-03	0.000000e+00	
-2.962025e+00	7.966102e-01	1.224946e+00	2.085672e+01	-2.861583e-08	2.534884e+05	1.013243e+05	2.881557e+02	5.003417e-02	-3.785318e-03	0.000000e+00	
-3.000000e+00	7.627119e-01	1.224946e+00	2.085672e+01	4.330982e-09	2.534884e+05	1.013243e+05	2.881557e+02	5.003417e-02	-3.785060e-03	0.000000e+00	
-2.962025e+00	7.627119e-01	1.224946e+00	2.085672e+01	-1.872421e-08	2.534884e+05	1.013243e+05	2.881557e+02	5.003417e-02	-3.785320e-03	0.000000e+00	
-3.000000e+00	7.288136e-01	1.224946e+00	2.085672e+01	3.296550e-09	2.534884e+05	1.013243e+05	2.881557e+02	5.003417e-02	-3.785061e-03	0.000000e+00	
-2.962025e+00	7.288136e-01	1.224946e+00	2.085672e+01	-1.428308e-08	2.534884e+05	1.013243e+05	2.881557e+02	5.003417e-02	-3.785322e-03	0.000000e+00	
-3.000000e+00	6.949153e-01	1.224946e+00	2.085672e+01	1.818086e-09	2.534884e+05	1.013243e+05	2.881557e+02	5.003417e-02	-3.785062e-03	0.000000e+00	
-2.962025e+00	6.949153e-01	1.224946e+00	2.085672e+01	-1.210451e-08	2.534884e+05	1.013243e+05	2.881557e+02	5.003417e-02	-3.785324e-03	0.000000e+00	
-3.000000e+00	6.610169e-01	1.224946e+00	2.085672e+01	8.038287e-10	2.534884e+05	1.013243e+05	2.881557e+02	5.003417e-02	-3.785063e-03	0.000000e+00	
-2.962025e+00	6.610169e-01	1.224946e+00	2.085672e+01	-1.055170e-08	2.534884e+05	1.013243e+05	2.881557e+02	5.003417e-02	-3.785325e-03	0.000000e+00	
-3.000000e+00	6.271186e-01	1.224946e+00	2.085672e+01	2.544335e-10	2.534884e+05	1.013243e+05	2.881557e+02	5.003417e-02	-3.785064e-03	0.000000e+00	
-2.962025e+00	6.271186e-01	1.224946e+00	2.085672e+01	-9.186603e-09	2.534884e+05	1.013243e+05	2.881557e+02	5.003417e-02	-3.785326e-03	0.000000e+00	
-3.000000e+00	5.932203e-01	1.224946e+00	2.085672e+01	-3.312096e-11	2.534884e+05	1.013243e+05	2.881557e+02	5.003417e-02	-3.785064e-03	0.000000e+00	
-2.962025e+00	5.932203e-01	1.224946e+00	2.085672e+01	-7.968487e-09	2.534884e+05	1.013243e+05	2.881557e+02	5.003417e-02	-3.785327e-03	0.000000e+00	
-3.000000e+00	5.593220e-01	1.224946e+00	2.085672e+01	-2.089272e-10	2.534884e+05	1.013243e+05	2.881557e+02	5.003417e-02	-3.785065e-03	0.000000e+00	
-2.962025e+00	5.593220e-01	1.224946e+00	2.085672e+01	-6.935430e-09	2.534884e+05	1.013243e+05	2.881557e+02	5.003417e-02	-3.785328e-03	0.000000e+00	
-3.000000e+00	5.254237e-01	1.224946e+00	2.085672e+01	-3.323414e-10	2.534884e+05	1.013243e+05	2.881557e+02	5.003417e-02	-3.785065e-03	0.000000e+00	
-2.962025e+00	5.254237e-01	1.224946e+00	2.085672e+01	-6.072874e-09	2.534884e+05	1.013243e+05	2.881557e+02	5.003417e-02	-3.785328e-03	0.000000e+00	
-3.000000e+00	4.915254e-01	1.224946e+00	2.085672e+01	-4.200370e-10	2.534884e+05	1.013243e+05	2.881557e+02	5.003417e-02	-3.785066e-03	0.000000e+00	
-2.962025e+00	4.915254e-01	1.224946e+00	2.085672e+01	-5.343008e-09	2.534884e+05	1.013243e+05	2.881557e+02	5.003417e-02	-3.785329e-03	0.000000e+00	
-3.000000e+00	4.576271e-01	1.224946e+00	2.085672e+01	-4.772351e-10	2.534884e+05	1.013243e+05	2.881557e+02	5.003417e-02	-3.785066e-03	0.000000e+00	
-2.962025e+00	4.576271e-01	1.224946e+00	2.085672e+01	-4.706198e-09	2.534884e+05	1.013243e+05	2.881557e+02	5.003417e-02	-3.785330e-03	0.000000e+00	
-3.000000e+00	4.237288e-01	1.224946e+00	2.085672e+01	-5.113759e-10	2.534884e+05	1.013243e+05	2.881557e+02	5.003417e-02	-3.785067e-03	0.000000e+00	
-2.962025e+00	4.237288e-01	1.224946e+00	2.085672e+01	-4.137058e-09	2.534884e+05	1.013243e+05	2.881557e+02	5.003417e-02	-3.785330e-03	0.000000e+00	
-3.000000e+00	3.898305e-01	1.224946e+00	2.085672e+01	-5.311107e-10	2.534884e+05	1.013243e+05	2.881557e+02	5.003417e-02	-3.785067e-03	0.000000e+00	
-2.962025e+00	3.898305e-01	1.224946e+00	2.085672e+01	-3.620843e-09	2.534884e+05	1.013243e+05	2.881557e+02	5.003417e-02	-3.785330e-03	0.000000e+00	
-3.000000e+00	3.559322e-01	1.224946e+00	2.085672e+01	-5.431980e-10	2.534884e+05	1.013243e+05	2.881557e+02	5.003417e-02	-3.785067e-03	0.000000e+00	
-2.962025e+00	3.559322e-01	1.224946e+00	2.085672e+01	-3.148652e-09	2.534884e+05	1.013243e+05	2.881557e+02	5.003417e-02	-3.785331e-03	0.000000e+00	
-3.000000e+00	3.220339e-01	1.224946e+00	2.085672e+01	-5.511865e-10	2.534884e+05	1.013243e+05	2.881557e+02	5.003417e-02	-3.785068e-03	0.000000e+00	
-2.962025e+00	3.220339e-01	1.224946e+00	2.085672e+01	-2.713308e-09	2.534884e+05	1.013243e+05	2.881557e+02	5.003417e-02	-3.785331e-03	0.000000e+00	
-3.000000e+00	2.881356e-01	1.224946e+00	2.085672e+01	-5.570568e-10	2.534884e+05	1.013243e+05	2.881557e+02	5.003417e-02	-3.785068e-03	0.000000e+00	
-2.962025e+00	2.881356e-01	1.224946e+00	2.085672e+01	-2.308597e-09	2.534884e+05	1.013243e+05	2.881557e+02	5.003417e-02	-3.785331e-03	0.000000e+00	
-3.000000e+00	2.542373e-01	1.224946e+00	2.085672e+01	-5.616636e-10	2.534884e+05	1.013243e+05	2.881557e+02	5.003417e-02	-3.785068e-03	0.000000e+00	
-2.962025e+00	2.542373e-01	1.224946e+00	2.085672e+01	-1.929177e-09	2.534884e+05	1.013243e+05	2.881557e+02	5.003417e-02	-3.785332e-03	0.000000e+00	
-3.000000e+00	2.203390e-01	1.224946e+00	2.085672e+01	-5.649378e-10	2.534884e+05	1.013243e+05	2.881557e+02	5.003417e-02	-3.785068e-03	0.000000e+00	
-2.962025e+00	2.203390e-01	1.224946e+00	2.085672e+01	-1.569608e-09	2.534884e+05	1.013243e+05	2.881557e+02	5.003417e-02	-3.785332e-03	0.000000e+00	
-3.000000e+00	1.864407e-01	1.224946e+00	2.085672e+01	-5.672492e-10	2.534884e+05	1.013243e+05	2.881557e+02	5.003417e-02	-3.785069e-03	0.000000e+00	
-2.962025e+00	1.864407e-01	1.224946e+00	2.085672e+01	-1.225953e-09	2.534884e+05	1.013243e+05	2.881557e+02	5.003417e-02	-3.785332e-03	0.000000e+00	
-3.000000e+00	1.525424e-01	1.224946e+00	2.085672e+01	-5.684963e-10	2.534884e+05	1.013243e+05	2.881557e+02	5.003417e-02	-3.785069e-03	0.000000e+00	
-2.962025e+00	1.525424e-01	1.224946e+00	2.085672e+01	-8.945692e-10	2.534884e+05	1.013243e+05	2.881557e+02	5.003417e-02	-3.785332e-03	0.000000e+00	
-3.000000e+00	1.186441e-01	1.224946e+00	2.085672e+01	-5.690329e-10	2.534884e+05	1.013243e+05	2.881557e+02	5.003417e-02	-3.785069e-03	0.000000e+00	
-2.962025e+00	1.186441e-01	1.224946e+00	2.085672e+01	-5.726722e-10	2.534884e+05	1.013243e+05	2.881557e+02	5.003417e-02	-3.785332e-03	0.000000e+00	
-3.000000e+00	8.474576e-02	1.224946e+00	2.085672e+01	-5.694192e-10	2.534884e+05	1.013243e+05	2.881557e+02	5.003417e-02	-3.785069e-03	0.000000e+00	
-2.962025e+00	8.474576e-02	1.224946e+00	2.085672e+01	-2.579758e-10	2.534884e+05	1.013243e+05	2.881557e+02	5.003417e-02	-3.785332e-03	0.000000e+00	
-3.000000e+00	5.084746e-02	1.224946e+00	2.085672e+01	-5.693720e-10	2.534884e+05	1.013243e+05	2.881557e+02	5.003417e-02	-3.785069e-03	0.000000e+00	
-2.962025e+00	5.084746e-02	1.224946e+00	2.085672e+01	5.177707e-11	2.534884e+05	1.013243e+05	2.881557e+02	5.003417e-02	-3.785332e-03	0.000000e+00	
-3.000000e+00	1.694915e-02	1.224946e+00	2.085672e+01	-5.692059e-10	2.534884e+05	1.013243e+05	2.881557e+02	5.003417e-02	-3.785069e-03	0.000000e+00	
-2.962025e+00	1.694915e-02	1.224946e+00	2.085672e+01	3.584948e-10	2.534884e+05	1.013243e+05	2.881557e+02	5.003417e-02	-3.785332e-03	0.000000e+00	
-3.000000e+00	-1.694915e-02	1.224946e+00	2.085672e+01	-5.689447e-10	2.534884e+05	1.013243e+05	2.881557e+02	5.003417e-02	-3.785069e-03	0.000000e+00	
-2.962025e+00	-1.694915e-02	1.224946e+00	2.085672e+01	6.641528e-10	2.534884e+05	1.013243e+05	2.881557e+02	5.003417e-02	-3.785332e-03	0.000000e+00	
-3.000000e+00	-5.084746e-02	1.224946e+00	2.085672e+01	-5.688904e-10	2.534884e+05	1.013243e+05	2.881557e+02	5.003417e-02	-3.785069e-03	0.000000e+00	
-2.962025e+00	-5.084746e-02	1.224946e+00	2.085672e+01	9.704050e-10	2.534884e+05	1.013243e+05	2.881557e+02	5.003417e-02	-3.785332e-03	0.000000e+00	
-3.000000e+00	-8.474576e-02	1.224946e+00	2.085672e+01	-5.688934e-10	2.534884e+05	1.013243e+05	2.881557e+02	5.003417e-02	-3.785069e-03	0.000000e+00	
-2.962025e+00	-8.474576e-02	1.224946e+00	2.085672e+01	1.279232e-09	2.534884e+05	1.013243e+05	2.881557e+02	5.003417e-02	-3.785332e-03	0.000000e+00	
-3.000000e+00	-1.186441e-01	1.224946e+00	2.085672e+01	-5.691273e-10	2.534884e+05	1.013243e+05	2.881557e+02	5.003417e-02	-3.785069e-03	0.000000e+00	
-2.962025e+00	-1.186441e-01	1.224946e+00	2.085672e+01	1.592723e-09	2.534884e+05	1.013243e+05	2.881557e+02	5.003417e-02	-3.785332e-03	0.000000e+00	
-3.000000e+00	-1.525424e-01	1.224946e+00	2.085672e+01	-5.698103e-10	2.534884e+05	1.013243e+05	2.881557e+02	5.003417e-02	-3.785069e-03	0.000000e+00	
-2.962025e+00	-1.525424e-01	1.224946e+00	2.085672e+01	1.912893e-09	2.534884e+05	1.013243e+05	2.881557e+02	5.003417e-02	-3.785332e-03	0.000000e+00	
-3.000000e+00	-1.864407e-01	1.224946e+00	2.085672e+01	-5.710596e-10	2.534884e+05	1.013243e+05	2.881557e+02	5.003417e-02	-3.785069e-03	0.000000e+00	
-2.962025e+00	-1.864407e-01	1.224946e+00	2.085672e+01	2.242317e-09	2.534884e+05	1.013243e+05	2.881557e+02	5.003417e-02	-3.785332e-03	0.000000e+00	
-3.000000e+00	-2.203390e-01	1.224946e+00	2.085672e+01	-5.733081e-10	2.534884e+05	1.013243e+05	2.881557e+02	5.003417e-02	-3.785068e-03	0.000000e+00	
-2.962025e+00	-2.203390e-01	1.224946e+00	2.085672e+01	2.583620e-09	2.534884e+05	1.013243e+05	2.881557e+02	5.003417e-02	-3.785332e-03	0.000000e+00	
-3.000000e+00	-2.542373e-01	1.224946e+00	2.085672e+01	-5.766001e-10	2.534884e+05	1.013243e+05	2.881557e+02	5.003417e-02	-3.785068e-03	0.000000e+00	
-2.962025e+00	-2.542373e-01	1.224946e+00	2.085672e+01	2.940462e-09	2.534884e+05	1.013243e+05	2.881557e+02	5.003417e-02	-3.785332e-03	0.000000e+00	
-3.000000e+00	-2.881356e-01	1.224946e+00	2.085672e+01	-5.811518e-10	2.534884e+05	1.013243e+05	2.881557e+02	5.003417e-02	-3.785068e-03	0.000000e+00	
-2.962025e+00	-2.881356e-01	1.224946e+00	2.085672e+01	3.317020e-09	2.534884e+05	1.013243e+05	2.881557e+02	5.003417e-02	-3.785331e-03	0.000000e+00	
-3.000000e+00	-3.220339e-01	1.224946e+00	2.085672e+01	-5.869186e-10	2.534884e+05	1.013243e+05	2.881557e+02	5.003417e-02	-3.785068e-03	0.000000e+00	
-2.962025e+00	-3.220339e-01	1.224946e+00	2.085672e+01	3.718545e-09	2.534884e+05	1.013243e+05	2.881557e+02	5.003417e-02	-3.785331e-03	0.000000e+00	
-3.000000e+00	-3.559322e-01	1.224946e+00	2.085672e+01	-5.945713e-10	2.534884e+05	1.013243e+05	2.881557e+02	5.003417e-02	-3.785067e-03	0.000000e+00	
-2.962025e+00	-3.559322e-01	1.224946e+00	2.085672e+01	4.150752e-09	2.534884e+05	1.013243e+05	2.881557e+02	5.003417e-02	-3.785331e-03	0.000000e+00	
-3.000000e+00	-3.898305e-01	1.224946e+00	2.085672e+01	-6.063696e-10	2.534884e+05	1.013243e+05	2.881557e+02	5.003417e-02	-3.785067e-03	0.000000e+00	
-2.962025e+00	-3.898305e-01	1.224946e+00	2.085672e+01	4.619522e-09	2.534884e+05	1.013243e+05	2.881557e+02	5.003417e-02	-3.785330e-03	0.000000e+00	
-3.000000e+00	-4.237288e-01	1.224946e+00	2.085672e+01	-6.262803e-10	2.534884e+05	1.013243e+05	2.881557e+02	5.003417e-02	-3.785067e-03	0.000000e+00	
-2.962025e+00	-4.237288e-01	1.224946e+00	2.085672e+01	5.131942e-09	2.534884e+05	1.013243e+05	2.881557e+02	5.003417e-02	-3.785330e-03	0.000000e+00	
-3.000000e+00	-4.576271e-01	1.224946e+00	2.085672e+01	-6.608125e-10	2.534884e+05	1.013243e+05	2.881557e+02	5.003417e-02	-3.785066e-03	0.000000e+00	
-2.962025e+00	-4.576271e-01	1.224946e+00	2.085672e+01	5.697019e-09	2.534884e+05	1.013243e+05	2.881557e+02	5.003417e-02	-3.785330e-03	0.000000e+00	
-3.000000e+00	-4.915254e-01	1.224946e+00	2.085672e+01	-7.180691e-10	2.534884e+05	1.013243e+05	2.881557e+02	5.003417e-02	-3.785066e-03	0.000000e+00	
-2.962025e+00	-4.915254e-01	1.224946e+00	2.085672e+01	6.330203e-09	2.534884e+05	1.013243e+05	2.881557e+02	5.003417e-02	-3.785329e-03	0.000000e+00	
-3.000000e+00	-5.254237e-01	1.224946e+00	2.085672e+01	-8.055621e-10	2.534884e+05	1.013243e+05	2.881557e+02	5.003417e-02	-3.785066e-03	0.000000e+00	
-2.962025e+00	-5.254237e-01	1.224946e+00	2.085672e+01	7.057103e-09	2.534884e+05	1.013243e+05	2.881557e+02	5.003417e-02	-3.785329e-03	0.000000e+00	
-3.000000e+00	-5.593220e-01	1.224946e+00	2.085672e+01	-9.291082e-10	2.534884e+05	1.013243e+05	2.881557e+02	5.003417e-02	-3.785065e-03	0.000000e+00	
-2.962025e+00	-5.593220e-01	1.224946e+00	2.085672e+01	7.917326e-09	2.534884e+05	1.013243e+05	2.881557e+02	5.003417e-02	-3.785328e-03	0.000000e+00	
-3.000000e+00	-5.932203e-01	1.224946e+00	2.085672e+01	-1.105580e-09	2.534884e+05	1.013243e+05	2.881557e+02	5.003417e-02	-3.785064e-03	0.000000e+00	
-2.962025e+00	-5.932203e-01	1.224946e+00	2.085672e+01	8.948449e-09	2.534884e+05	1.013243e+05	2.881557e+02	5.003417e-02	-3.785327e-03	0.000000e+00	
-3.000000e+00	-6.271186e-01	1.224946e+00	2.085672e+01	-1.394493e-09	2.534884e+05	1.013243e+05	2.881557e+02	5.003417e-02	-3.785064e-03	0.000000e+00	
-2.962025e+00	-6.271186e-01	1.224946e+00	2.085672e+01	1.016602e-08	2.534884e+05	1.013243e+05	2.881557e+02	5.003417e-02	-3.785326e-03	0.000000e+00	
-3.000000e+00	-6.610169e-01	1.224946e+00	2.085672e+01	-1.946611e-09	2.534884e+05	1.013243e+05	2.881557e+02	5.003417e-02	-3.785063e-03	0.000000e+00	
-2.962025e+00	-6.610169e-01	1.224946e+00	2.085672e+01	1.153228e-08	2.534884e+05	1.013243e+05	2.881557e+02	5.003417e-02	-3.785325e-03	0.000000e+00	
-3.000000e+00	-6.949153e-01	1.224946e+00	2.085672e+01	-2.962154e-09	2.534884e+05	1.013243e+05	2.881557e+02	5.003417e-02	-3.785062e-03	0.000000e+00	
-2.962025e+00	-6.949153e-01	1.224946e+00	2.085672e+01	1.309377e-08	2.534884e+05	1.013243e+05	2.881557e+02	5.003417e-02	-3.785324e-03	0.000000e+00	
-3.000000e+00	-7.288136e-01	1.224946e+00	2.085672e+01	-4.437525e-09	2.534884e+05	1.013243e+05	2.881557e+02	5.003417e-02	-3.785061e-03	0.000000e+00	
-2.962025e+00	-7.288136e-01	1.224946e+00	2.085672e+01	1.529202e-08	2.534884e+05	1.013243e+05	2.881557e+02	5.003417e-02	-3.785322e-03	0.000000e+00	
-3.000000e+00	-7.627119e-01	1.224946e+00	2.085672e+01	-5.458243e-09	2.534884e+05	1.013243e+05	2.881557e+02	5.003417e-02	-3.785060e-03	0.000000e+00	
-2.962025e+00	-7.627119e-01	1.224946e+00	2.085672e+01	1.977571e-08	2.534884e+05	1.013243e+05	2.881557e+02	5.003417e-02	-3.785321e-03	0.000000e+00	
-3.000000e+00	-7.966102e-01	1.224946e+00	2.085672e+01	-3.387835e-09	2.534884e+05	1.013243e+05	2.881557e+02	5.003417e-02	-3.785059e-03	0.000000e+00	
-2.962025e+00	-7.966102e-01	1.224946e+00	2.085672e+01	2.972846e-08	2.534884e+05	1.013243e+05	2.881557e+02	5.003417e-02	-3.785318e-03	0.000000e+00	
-3.000000e+00	-8.305085e-01	1.224946e+00	2.085672e+01	6.437099e-09	2.534884e+05	1.013243e+05	2.881557e+02	5.003417e-02	-3.785057e-03	0.000000e+00	
-2.962025e+00	-8.305085e-01	1.224946e+00	2.085672e+01	4.965166e-08	2.534884e+05	1.013243e+05	2.881557e+02	5.003417e-02	-3.785316e-03	0.000000e+00	
-3.000000e+00	-8.644068e-01	1.224946e+00	2.085672e+01	2.807721e-08	2.534884e+05	1.013243e+05	2.881557e+02	5.003417e-02	-3.785052e-03	0.000000e+00	
-2.962025e+00	-8.644068e-01	1.224946e+00	2.085672e+01	8.076707e-08	2.534884e+05	1.013243e+05	2.881557e+02	5.003417e-02	-3.785312e-03	0.000000e+00	
-3.000000e+00	-8.983051e-01	1.224946e+00	2.085672e+01	5.965357e-08	2.534884e+05	1.013243e+05	2.881557e+02	5.003417e-02	-3.785044e-03	0.000000e+00	
-2.962025e+00	-8.983051e-01	1.224946e+00	2.085672e+01	1.166530e-07	2.534884e+05	1.013243e+05	2.881557e+02	5.003417e-02	-3.785309e-03	0.000000e+00	
-3.000000e+00	-9.322034e-01	1.224946e+00	2.085672e+01	8.475714e-08	2.534884e+05	1.013243e+05	2.881557e+02	5.003416e-02	-3.785031e-03	0.000000e+00	
-2.962025e+00	-9.322034e-01	1.224946e+00	2.085672e+01	1.329515e-07	2.534884e+05	1.013243e+05	2.881557e+02	5.003417e-02	-3.785303e-03	0.000000e+00	
-3.000000e+00	-9.661017e-01	1.224946e+00	2.085672e+01	7.527156e-08	2.534884e+05	1.013243e+05	2.881557e+02	5.003416e-02	-3.785015e-03	0.000000e+00	
-2.962025e+00	-9.661017e-01	1.224946e+00	2.085672e+01	1.046182e-07	2.534884e+05	1.013243e+05	2.881557e+02	5.003416e-02	-3.785303e-03	0.000000e+00	
-2.924051e+00	9.661017e-01	1.224946e+00	2.085672e+01	-1.138909e-07	2.534884e+05	1.013243e+05	2.881557e+02	5.003416e-02	-3.785496e-03	0.000000e+00	
-2.924051e+00	1.000000e+00	1.224946e+00	2.085672e+01	2.223642e-09	2.534884e+05	1.013243e+05	2.881557e+02	5.003416e-02	-3.785488e-03	0.000000e+00	
-2.924051e+00	9.322034e-01	1.224946e+00	2.085672e+01	-1.623447e-07	2.534884e+05	1.013243e+05	2.881557e+02	5.003417e-02	-3.785497e-03	0.000000e+00	
-2.924051e+00	8.983051e-01	1.224946e+00	2.085672e+01	-1.569033e-07	2.534884e+05	1.013243e+05	2.881557e+02	5.003417e-02	-3.785503e-03	0.000000e+00	
-2.924051e+00	8.644068e-01	1.224946e+00	2.085672e+01	-1.212417e-07	2.534884e+05	1.013243e+05	2.881557e+02	5.003417e-02	-3.785506e-03	0.000000e+00	
-2.924051e+00	8.305085e-01	1.224946e+00	2.085672e+01	-8.388956e-08	2.534884e+05	1.013243e+05	2.881557e+02	5.003417e-02	-3.785509e-03	0.000000e+00	
-2.924051e+00	7.966102e-01	1.224946e+00	2.085672e+01	-5.593855e-08	2.534884e+05	1.013243e+05	2.881557e+02	5.003417e-02	-3.785511e-03	0.000000e+00	
-2.924051e+00	7.627119e-01	1.224946e+00	2.085672e+01	-3.921329e-08	2.534884e+05	1.013243e+05	2.881557e+02	5.003417e-02	-3.785513e-03	0.000000e+00	
-2.924051e+00	7.288136e-01	1.224946e+00	2.085672e+01	-2.991935e-08	2.534884e+05	1.013243e+05	2.881557e+02	5.003417e-02	-3.785515e-03	0.000000e+00	
-2.924051e+00	6.949153e-01	1.224946e+00	2.085672e+01	-2.453391e-08	2.534884e+05	1.013243e+05	2.881557e+02	5.003417e-02	-3.785516e-03	0.000000e+00	
-2.924051e+00	6.610169e-01	1.224946e+00	2.085672e+01	-2.078253e-08	2.534884e+05	1.013243e+05	2.881557e+02	5.003417e-02	-3.785517e-03	0.000000e+00	
-2.924051e+00	6.271186e-01	1.224946e+00	2.085672e+01	-1.779254e-08	2.534884e+05	1.013243e+05	2.881557e+02	5.003417e-02	-3.785518e-03	0.000000e+00	
-2.924051e+00	5.932203e-01	1.224946e+00	2.085672e+01	-1.528839e-08	2.534884e+05	1.013243e+05	2.881557e+02	5.003417e-02	-3.785519e-03	0.000000e+00	
-2.924051e+00	5.593220e-01	1.224946e+00	2.085672e+01	-1.320799e-08	2.534884e+05	1.013243e+05	2.881557e+02	5.003417e-02	-3.785520e-03	0.000000e+00	
-2.924051e+00	5.254237e-01	1.224946e+00	2.085672e+01	-1.148024e-08	2.534884e+05	1.013243e+05	2.881557e+02	5.003417e-02	-3.785520e-03	0.000000e+00	
-2.924051e+00	4.915254e-01	1.224946e+00	2.085672e+01	-1.002539e-08	2.534884e+05	1.013243e+05	2.881557e+02	5.003417e-02	-3.785521e-03	0.000000e+00	
-2.924051e+00	4.576271e-01	1.224946e+00	2.085672e+01	-8.766716e-09	2.534884e+05	1.013243e+05	2.881557e+02	5.003417e-02	-3.785521e-03	0.000000e+00	
-2.924051e+00	4.237288e-01	1.224946e+00	2.085672e+01	-7.650453e-09	2.534884e+05	1.013243e+05	2.881557e+02	5.003417e-02	-3.785522e-03	0.000000e+00	
-2.924051e+00	3.898305e-01	1.224946e+00	2.085672e+01	-6.641677e-09	2.534884e+05	1.013243e+05	2.881557e+02	5.003417e-02	-3.785522e-03	0.000000e+00	
-2.924051e+00	3.559322e-01	1.224946e+00	2.085672e+01	-5.718464e-09	2.534884e+05	1.013243e+05	2.881557e+02	5.003417e-02	-3.785522e-03	0.000000e+00	
-2.924051e+00	3.220339e-01	1.224946e+00	2.085672e+01	-4.865189e-09	2.534884e+05	1.013243e+05	2.881557e+02	5.003417e-02	-3.785523e-03	0.000000e+00	
-2.924051e+00	2.881356e-01	1.224946e+00	2.085672e+01	-4.069622e-09	2.534884e+05	1.013243e+05	2.881557e+02	5.003417e-02	-3.785523e-03	0.000000e+00	
-2.924051e+00	2.542373e-01	1.224946e+00	2.085672e+01	-3.321518e-09	2.534884e+05	1.013243e+05	2.881557e+02	5.003417e-02	-3.785523e-03	0.000000e+00	
-2.924051e+00	2.203390e-01	1.224946e+00	2.085672e+01	-2.611719e-09	2.534884e+05	1.013243e+05	2.881557e+02	5.003417e-02	-3.785523e-03	0.000000e+00	
-2.924051e+00	1.864407e-01	1.224946e+00	2.085672e+01	-1.932708e-09	2.534884e+05	1.013243e+05	2.881557e+02	5.003417e-02	-3.785524e-03	0.000000e+00	
-2.924051e+00	1.525424e-01	1.224946e+00	2.085672e+01	-1.277706e-09	2.534884e+05	1.013243e+05	2.881557e+02	5.003417e-02	-3.785524e-03	0.000000e+00	
-2.924051e+00	1.186441e-01	1.224946e+00	2.085672e+01	-6.412505e-10	2.534884e+05	1.013243e+05	2.881557e+02	5.003417e-02	-3.785524e-03	0.000000e+00	
-2.924051e+00	8.474576e-02	1.224946e+00	2.085672e+01	-1.875685e-11	2.534884e+05	1.013243e+05	2.881557e+02	5.003417e-02	-3.785524e-03	0.000000e+00	
-2.924051e+00	5.084746e-02	1.224946e+00	2.085672e+01	5.939946e-10	2.534884e+05	1.013243e+05	2.881557e+02	5.003417e-02	-3.785524e-03	0.000000e+00	
-2.924051e+00	1.694915e-02	1.224946e+00	2.085672e+01	1.200972e-09	2.534884e+05	1.013243e+05	2.881557e+02	5.003417e-02	-3.785524e-03	0.000000e+00	
-2.924051e+00	-1.694915e-02	1.224946e+00	2.085672e+01	1.805647e-09	2.534884e+05	1.013243e+05	2.881557e+02	5.003417e-02	-3.785524e-03	0.000000e+00	
-2.924051e+00	-5.084746e-02	1.224946e+00	2.085672e+01	2.411668e-09	2.534884e+05	1.013243e+05	2.881557e+02	5.003417e-02	-3.785524e-03	0.000000e+00	
-2.924051e+00	-8.474576e-02	1.224946e+00	2.085672e+01	3.022728e-09	2.534884e+05	1.013243e+05	2.881557e+02	5.003417e-02	-3.785524e-03	0.000000e+00	
-2.924051e+00	-1.186441e-01	1.224946e+00	2.085672e+01	3.642574e-09	2.534884e+05	1.013243e+05	2.881557e+02	5.003417e-02	-3.785524e-03	0.000000e+00	
-2.924051e+00	-1.525424e-01	1.224946e+00	2.085672e+01	4.275585e-09	2.534884e+05	1.013243e+05	2.881557e+02	5.003417e-02	-3.785524e-03	0.000000e+00	
-2.924051e+00	-1.864407e-01	1.224946e+00	2.085672e+01	4.926508e-09	2.534884e+05	1.013243e+05	2.881557e+02	5.003417e-02	-3.785524e-03	0.000000e+00	
-2.924051e+00	-2.203390e-01	1.224946e+00	2.085672e+01	5.600867e-09	2.534884e+05	1.013243e+05	2.881557e+02	5.003417e-02	-3.785523e-03	0.000000e+00	
-2.924051e+00	-2.542373e-01	1.224946e+00	2.085672e+01	6.305115e-09	2.534884e+05	1.013243e+05	2.881557e+02	5.003417e-02	-3.785523e-03	0.000000e+00	
-2.924051e+00	-2.881356e-01	1.224946e+00	2.085672e+01	7.047186e-09	2.534884e+05	1.013243e+05	2.881557e+02	5.003417e-02	-3.785523e-03	0.000000e+00	
-2.924051e+00	-3.220339e-01	1.224946e+00	2.085672e+01	7.836112e-09	2.534884e+05	1.013243e+05	2.881557e+02	5.003417e-02	-3.785523e-03	0.000000e+00	
-2.924051e+00	-3.559322e-01	1.224946e+00	2.085672e+01	8.682405e-09	2.534884e+05	1.013243e+05	2.881557e+02	5.003417e-02	-3.785522e-03	0.000000e+00	
-2.924051e+00	-3.898305e-01	1.224946e+00	2.085672e+01	9.598158e-09	2.534884e+05	1.013243e+05	2.881557e+02	5.003417e-02	-3.785522e-03	0.000000e+00	
-2.924051e+00	-4.237288e-01	1.224946e+00	2.085672e+01	1.059902e-08	2.534884e+05	1.013243e+05	2.881557e+02	5.003417e-02	-3.785522e-03	0.000000e+00	
-2.924051e+00	-4.576271e-01	1.224946e+00	2.085672e+01	1.170697e-08	2.534884e+05	1.013243e+05	2.881557e+02	5.003417e-02	-3.785521e-03	0.000000e+00	
-2.924051e+00	-4.915254e-01	1.224946e+00	2.085672e+01	1.295777e-08	2.534884e+05	1.013243e+05	2.881557e+02	5.003417e-02	-3.785521e-03	0.000000e+00	
-2.924051e+00	-5.254237e-01	1.224946e+00	2.085672e+01	1.440530e-08	2.534884e+05	1.013243e+05	2.881557e+02	5.003417e-02	-3.785520e-03	0.000000e+00	
-2.924051e+00	-5.593220e-01	1.224946e+00	2.085672e+01	1.612659e-08	2.534884e+05	1.013243e+05	2.881557e+02	5.003417e-02	-3.785520e-03	0.000000e+00	
-2.924051e+00	-5.932203e-01	1.224946e+00	2.085672e+01	1.820104e-08	2.534884e+05	1.013243e+05	2.881557e+02	5.003417e-02	-3.785519e-03	0.000000e+00	
-2.924051e+00	-6.271186e-01	1.224946e+00	2.085672e+01	2.070153e-08	2.534884e+05	1.013243e+05	2.881557e+02	5.003417e-02	-3.785518e-03	0.000000e+00	
-2.924051e+00	-6.610169e-01	1.224946e+00	2.085672e+01	2.369061e-08	2.534884e+05	1.013243e+05	2.881557e+02	5.003417e-02	-3.785517e-03	0.000000e+00	
-2.924051e+00	-6.949153e-01	1.224946e+00	2.085672e+01	2.745184e-08	2.534884e+05	1.013243e+05	2.881557e+02	5.003417e-02	-3.785516e-03	0.000000e+00	
-2.924051e+00	-7.288136e-01	1.224946e+00	2.085672e+01	3.286101e-08	2.534884e+05	1.013243e+05	2.881557e+02	5.003417e-02	-3.785515e-03	0.000000e+00	
-2.924051e+00	-7.627119e-01	1.224946e+00	2.085672e+01	4.220902e-08	2.534884e+05	1.013243e+05	2.881557e+02	5.003417e-02	-3.785513e-03	0.000000e+00	
-2.924051e+00	-7.966102e-01	1.224946e+00	2.085672e+01	5.901165e-08	2.534884e+05	1.013243e+05	2.881557e+02	5.003417e-02	-3.785511e-03	0.000000e+00	
-2.924051e+00	-8.305085e-01	1.224946e+00	2.085672e+01	8.708368e-08	2.534884e+05	1.013243e+05	2.881557e+02	5.003417e-02	-3.785509e-03	0.000000e+00	
-2.924051e+00	-8.644068e-01	1.224946e+00	2.085672e+01	1.245706e-07	2.534884e+05	1.013243e+05	2.881557e+02	5.003417e-02	-3.785506e-03	0.000000e+00	
-2.924051e+00	-8.983051e-01	1.224946e+00	2.085672e+01	1.604502e-07	2.534884e+05	1.013243e+05	2.881557e+02	5.003417e-02	-3.785503e-03	0.000000e+00	
-2.924051e+00	-9.322034e-01	1.224946e+00	2.085672e+01	1.661415e-07	2.534884e+05	1.013243e+05	2.881557e+02	5.003417e-02	-3.785497e-03	0.000000e+00	
-2.924051e+00	-9.661017e-01	1.224946e+00	2.085672e+01	1.180291e-07	2.534884e+05	1.013243e+05	2.881557e+02	5.003416e-02	-3.785496e-03	0.000000e+00	
-2.886076e+00	9.661017e-01	1.224946e+00	2.085672e+01	-1.101319e-07	2.534884e+05	1.013243e+05	2.881557e+02	5.003416e-02	-3.785730e-03	0.000000e+00	
-2.886076e+00	1.000000e+00	1.224946e+00	2.085672e+01	2.826025e-09	2.534884e+05	1.013243e+05	2.881557e+02	5.003416e-02	-3.785727e-03	0.000000e+00	
-2.886076e+00	9.322034e-01	1.224946e+00	2.085672e+01	-1.688512e-07	2.534884e+05	1.013243e+05	2.881557e+02	5.003416e-02	-3.785731e-03	0.000000e+00	
-2.886076e+00	8.983051e-01	1.224946e+00	2.085672e+01	-1.738527e-07	2.534884e+05	1.013243e+05	2.881557e+02	5.003417e-02	-3.785734e-03	0.000000e+00	
-2.886076e+00	8.644068e-01	1.224946e+00	2.085672e+01	-1.444580e-07	2.534884e+05	1.013243e+05	2.881557e+02	5.003417e-02	-3.785735e-03	0.000000e+00	
-2.886076e+00	8.305085e-01	1.224946e+00	2.085672e+01	-1.074732e-07	2.534884e+05	1.013243e+05	2.881557e+02	5.003417e-02	-3.785738e-03	0.000000e+00	
-2.886076e+00	7.966102e-01	1.224946e+00	2.085672e+01	-7.662558e-08	2.534884e+05	1.013243e+05	2.881557e+02	5.003417e-02	-3.785739e-03	0.000000e+00	
-2.886076e+00	7.627119e-01	1.224946e+00	2.085672e+01	-5.617535e-08	2.534884e+05	1.013243e+05	2.881557e+02	5.003417e-02	-3.785741e-03	0.000000e+00	
-2.886076e+00	7.288136e-01	1.224946e+00	2.085672e+01	-4.370965e-08	2.534884e+05	1.013243e+05	2.881557e+02	5.003417e-02	-3.785742e-03	0.000000e+00	
-2.886076e+00	6.949153e-01	1.224946e+00	2.085672e+01	-3.597694e-08	2.534884e+05	1.013243e+05	2.881557e+02	5.003417e-02	-3.785744e-03	0.000000e+00	
-2.886076e+00	6.610169e-01	1.224946e+00	2.085672e+01	-3.050745e-08	2.534884e+05	1.013243e+05	2.881557e+02	5.003417e-02	-3.785745e-03	0.000000e+00	
-2.886076e+00	6.271186e-01	1.224946e+00	2.085672e+01	-2.617938e-08	2.534884e+05	1.013243e+05	2.881557e+02	5.003417e-02	-3.785746e-03	0.000000e+00	
-2.886076e+00	5.932203e-01	1.224946e+00	2.085672e+01	-2.257048e-08	2.534884e+05	1.013243e+05	2.881557e+02	5.003417e-02	-3.785747e-03	0.000000e+00	
-2.886076e+00	5.593220e-01	1.224946e+00	2.085672e+01	-1.955555e-08	2.534884e+05	1.013243e+05	2.881557e+02	5.003417e-02	-3.785747e-03	0.000000e+00	
-2.886076e+00	5.254237e-01	1.224946e+00	2.085672e+01	-1.703499e-08	2.534884e+05	1.013243e+05	2.881557e+02	5.003417e-02	-3.785748e-03	0.000000e+00	
-2.886076e+00	4.915254e-01	1.224946e+00	2.085672e+01	-1.490473e-08	2.534884e+05	1.013243e+05	2.881557e+02	5.003417e-02	-3.785749e-03	0.000000e+00	
-2.886076e+00	4.576271e-01	1.224946e+00	2.085672e+01	-1.306256e-08	2.534884e+05	1.013243e+05	2.881557e+02	5.003417e-02	-3.785749e-03	0.000000e+00	
-2.886076e+00	4.237288e-01	1.224946e+00	2.085672e+01	-1.143080e-08	2.534884e+05	1.013243e+05	2.881557e+02	5.003417e-02	-3.785750e-03	0.000000e+00	
-2.886076e+00	3.898305e-01	1.224946e+00	2.085672e+01	-9.956085e-09	2.534884e+05	1.013243e+05	2.881557e+02	5.003417e-02	-3.785750e-03	0.000000e+00	
-2.886076e+00	3.559322e-01	1.224946e+00	2.085672e+01	-8.603941e-09	2.534884e+05	1.013243e+05	2.881557e+02	5.003417e-02	-3.785750e-03	0.000000e+00	
-2.886076e+00	3.220339e-01	1.224946e+00	2.085672e+01	-7.350571e-09	2.534884e+05	1.013243e+05	2.881557e+02	5.003417e-02	-3.785751e-03	0.000000e+00	
-2.886076e+00	2.881356e-01	1.224946e+00	2.085672e+01	-6.178383e-09	2.534884e+05	1.013243e+05	2.881557e+02	5.003417e-02	-3.785751e-03	0.000000e+00	
-2.886076e+00	2.542373e-01	1.224946e+00	2.085672e+01	-5.073188e-09	2.534884e+05	1.013243e+05	2.881557e+02	5.003417e-02	-3.785751e-03	0.000000e+00	
-2.886076e+00	2.203390e-01	1.224946e+00	2.085672e+01	-4.022586e-09	2.534884e+05	1.013243e+05	2.881557e+02	5.003417e-02	-3.785751e-03	0.000000e+00	
-2.886076e+00	1.864407e-01	1.224946e+00	2.085672e+01	-3.016379e-09	2.534884e+05	1.013243e+05	2.881557e+02	5.003417e-02	-3.785752e-03	0.000000e+00	