TITLE = "Visualization of the volumetric solution"
VARIABLES = "x","y","Density","Momentum_x","Momentum_y","Energy","Pressure","Temperature","Mach","C<sub>p</sub>","Roe_Dissipation"
ZONE NODES= 2606, ELEMENTS= 5024, DATAPACKING=POINT, ZONETYPE=FEQUADRILATERAL
0.000000e+00	1.041837e-03	1.228368e+00	4.494120e+01	-1.141542e-01	2.550881e+05	1.017064e+05	2.884364e+02	1.074592e-01	3.181674e-01	0.000000e+00	
1.300615e-03	9.732249e-04	1.228035e+00	4.491162e+01	1.007679e+00	2.549938e+05	1.016688e+05	2.884082e+02	1.074496e-01	2.868567e-01	0.000000e+00	
6.930373e-04	2.025133e-03	1.228308e+00	4.494458e+01	4.230807e-01	2.550634e+05	1.016964e+05	2.884223e+02	1.074796e-01	3.098468e-01	0.000000e+00	
1.853913e-03	1.893545e-03	1.228007e+00	4.491904e+01	1.464029e+00	2.549779e+05	1.016622e+05	2.883957e+02	1.075021e-01	2.812985e-01	0.000000e+00	
0.000000e+00	2.083673e-03	1.228346e+00	4.491348e+01	-1.282944e-01	2.550835e+05	1.017049e+05	2.884376e+02	1.073948e-01	3.169646e-01	0.000000e+00	
2.490339e-03	9.215108e-04	1.227806e+00	4.489757e+01	2.004323e+00	2.549247e+05	1.016409e+05	2.883826e+02	1.075207e-01	2.635202e-01	0.000000e+00	
1.215862e-03	2.884459e-03	1.228129e+00	4.492441e+01	9.353197e-01	2.550152e+05	1.016773e+05	2.884100e+02	1.074678e-01	2.938918e-01	0.000000e+00	
0.000000e+00	3.125510e-03	1.228327e+00	4.491530e+01	-1.681211e-01	2.550807e+05	1.017038e+05	2.884387e+02	1.074009e-01	3.160042e-01	0.000000e+00	
2.418767e-03	2.754980e-03	1.227810e+00	4.493231e+01	1.957271e+00	2.549268e+05	1.016412e+05	2.883827e+02	1.075984e-01	2.638203e-01	0.000000e+00	
2.992728e-03	1.818458e-03	1.227691e+00	4.491744e+01	2.410034e+00	2.548922e+05	1.016273e+05	2.883708e+02	1.076281e-01	2.521590e-01	0.000000e+00	
3.573424e-03	8.976544e-04	1.227556e+00	4.490444e+01	2.841774e+00	2.548552e+05	1.016122e+05	2.883601e+02	1.076712e-01	2.396214e-01	0.000000e+00	
8.417039e-04	3.795059e-03	1.228260e+00	4.491825e+01	5.471181e-01	2.550512e+05	1.016919e+05	2.884206e+02	1.074243e-01	3.060980e-01	0.000000e+00	
1.902151e-03	3.678963e-03	1.227993e+00	4.493286e+01	1.515634e+00	2.549748e+05	1.016607e+05	2.883950e+02	1.075406e-01	2.800746e-01	0.000000e+00	
0.000000e+00	4.167347e-03	1.228332e+00	4.491780e+01	-1.219496e-01	2.550806e+05	1.017037e+05	2.884373e+02	1.074063e-01	3.159629e-01	0.000000e+00	
3.013620e-03	3.611645e-03	1.227688e+00	4.494045e+01	2.421164e+00	2.548921e+05	1.016269e+05	2.883706e+02	1.076848e-01	2.518367e-01	0.000000e+00	
3.544336e-03	2.701250e-03	1.227579e+00	4.492731e+01	2.814663e+00	2.548607e+05	1.016141e+05	2.883599e+02	1.077197e-01	2.412074e-01	0.000000e+00	
4.089451e-03	1.794668e-03	1.227477e+00	4.491528e+01	3.186502e+00	2.548313e+05	1.016022e+05	2.883500e+02	1.077611e-01	2.312400e-01	0.000000e+00	
4.634015e-03	8.983716e-04	1.227359e+00	4.490730e+01	3.541292e+00	2.547997e+05	1.015892e+05	2.883410e+02	1.078175e-01	2.204263e-01	0.000000e+00	
1.461244e-03	4.557392e-03	1.228085e+00	4.491792e+01	1.115010e+00	2.550031e+05	1.016725e+05	2.884067e+02	1.074666e-01	2.898774e-01	0.000000e+00	
6.081985e-04	4.614786e-03	1.228249e+00	4.492676e+01	3.495352e-01	2.550535e+05	1.016927e+05	2.884257e+02	1.074400e-01	3.067817e-01	0.000000e+00	
2.497843e-03	4.509481e-03	1.227796e+00	4.493306e+01	2.017099e+00	2.549238e+05	1.016400e+05	2.883823e+02	1.076078e-01	2.627632e-01	0.000000e+00	
0.000000e+00	5.209184e-03	1.228353e+00	4.492618e+01	-1.299236e-01	2.550850e+05	1.017054e+05	2.884370e+02	1.074246e-01	3.173306e-01	0.000000e+00	
3.550814e-03	4.455148e-03	1.227570e+00	4.493206e+01	2.825882e+00	2.548593e+05	1.016135e+05	2.883603e+02	1.077335e-01	2.406745e-01	0.000000e+00	
4.073570e-03	3.558117e-03	1.227470e+00	4.493410e+01	3.185664e+00	2.548306e+05	1.016016e+05	2.883500e+02	1.078065e-01	2.307602e-01	0.000000e+00	
4.600662e-03	2.661753e-03	1.227364e+00	4.492688e+01	3.520149e+00	2.548012e+05	1.015895e+05	2.883407e+02	1.078599e-01	2.206967e-01	0.000000e+00	
5.128743e-03	1.779497e-03	1.227278e+00	4.491675e+01	3.830833e+00	2.547766e+05	1.015795e+05	2.883323e+02	1.079055e-01	2.122997e-01	0.000000e+00	
5.680506e-03	8.803966e-04	1.227180e+00	4.491229e+01	4.126802e+00	2.547506e+05	1.015687e+05	2.883247e+02	1.079674e-01	2.033152e-01	0.000000e+00	
1.945294e-03	5.396565e-03	1.227937e+00	4.491792e+01	1.539461e+00	2.549628e+05	1.016561e+05	2.883949e+02	1.075117e-01	2.762277e-01	0.000000e+00	
8.465860e-04	5.441964e-03	1.228197e+00	4.493279e+01	5.612127e-01	2.550378e+05	1.016863e+05	2.884195e+02	1.074652e-01	3.014187e-01	0.000000e+00	
3.018879e-03	5.346960e-03	1.227693e+00	4.492036e+01	2.429395e+00	2.548931e+05	1.016276e+05	2.883713e+02	1.076373e-01	2.524093e-01	0.000000e+00	
0.000000e+00	6.251020e-03	1.228355e+00	4.492294e+01	-1.720305e-01	2.550861e+05	1.017059e+05	2.884379e+02	1.074168e-01	3.177283e-01	0.000000e+00	
4.075567e-03	5.306910e-03	1.227466e+00	4.492497e+01	3.187958e+00	2.548299e+05	1.016015e+05	2.883506e+02	1.077853e-01	2.306442e-01	0.000000e+00	
4.597935e-03	4.414596e-03	1.227371e+00	4.493020e+01	3.522217e+00	2.548031e+05	1.015902e+05	2.883412e+02	1.078676e-01	2.212842e-01	0.000000e+00	
5.119218e-03	3.522898e-03	1.227283e+00	4.493058e+01	3.824729e+00	2.547781e+05	1.015799e+05	2.883324e+02	1.079368e-01	2.126399e-01	0.000000e+00	
5.644918e-03	2.639160e-03	1.227197e+00	4.492358e+01	4.106717e+00	2.547542e+05	1.015700e+05	2.883245e+02	1.079885e-01	2.044316e-01	0.000000e+00	
6.184201e-03	1.766163e-03	1.227124e+00	4.491602e+01	4.368270e+00	2.547335e+05	1.015615e+05	2.883174e+02	1.080371e-01	1.972819e-01	0.000000e+00	
6.719520e-03	8.804634e-04	1.227038e+00	4.491289e+01	4.615926e+00	2.547108e+05	1.015521e+05	2.883110e+02	1.080974e-01	1.894191e-01	0.000000e+00	
2.459938e-03	6.229953e-03	1.227797e+00	4.492369e+01	1.978289e+00	2.549240e+05	1.016402e+05	2.883827e+02	1.075811e-01	2.629610e-01	0.000000e+00	
1.285040e-03	6.263751e-03	1.228140e+00	4.491870e+01	9.749460e-01	2.550162e+05	1.016778e+05	2.884087e+02	1.074555e-01	2.942963e-01	0.000000e+00	
3.545302e-03	6.196102e-03	1.227578e+00	4.491960e+01	2.819910e+00	2.548607e+05	1.016143e+05	2.883606e+02	1.077021e-01	2.413156e-01	0.000000e+00	
8.926045e-04	7.095737e-03	1.228247e+00	4.492158e+01	5.750829e-01	2.550477e+05	1.016905e+05	2.884197e+02	1.074345e-01	3.048825e-01	0.000000e+00	
0.000000e+00	7.292857e-03	1.228323e+00	4.491810e+01	-1.003955e-01	2.550783e+05	1.017028e+05	2.884368e+02	1.074078e-01	3.151669e-01	0.000000e+00	
5.121991e-03	5.274208e-03	1.227279e+00	4.492609e+01	3.828497e+00	2.547777e+05	1.015798e+05	2.883329e+02	1.079271e-01	2.125326e-01	0.000000e+00	
4.602347e-03	6.164379e-03	1.227367e+00	4.492203e+01	3.522735e+00	2.548021e+05	1.015900e+05	2.883414e+02	1.078485e-01	2.210563e-01	0.000000e+00	
5.640344e-03	4.383762e-03	1.227197e+00	4.493064e+01	4.107163e+00	2.547546e+05	1.015701e+05	2.883248e+02	1.080054e-01	2.044594e-01	0.000000e+00	
6.160576e-03	3.496751e-03	1.227123e+00	4.492832e+01	4.363749e+00	2.547337e+05	1.015614e+05	2.883174e+02	1.080654e-01	1.971951e-01	0.000000e+00	
6.685981e-03	2.617603e-03	1.227048e+00	4.492229e+01	4.599966e+00	2.547130e+05	1.015528e+05	2.883107e+02	1.081150e-01	1.900785e-01	0.000000e+00	
7.209930e-03	1.756919e-03	1.226985e+00	4.491648e+01	4.814997e+00	2.546955e+05	1.015456e+05	2.883049e+02	1.081615e-01	1.839999e-01	0.000000e+00	
7.762955e-03	8.590462e-04	1.226916e+00	4.491444e+01	5.015435e+00	2.546774e+05	1.015380e+05	2.882996e+02	1.082159e-01	1.777044e-01	0.000000e+00	
1.912678e-03	7.101601e-03	1.227969e+00	4.493109e+01	1.527280e+00	2.549694e+05	1.016586e+05	2.883947e+02	1.075395e-01	2.782994e-01	0.000000e+00	
3.009988e-03	7.081951e-03	1.227686e+00	4.492398e+01	2.421394e+00	2.548916e+05	1.016269e+05	2.883711e+02	1.076456e-01	2.518715e-01	0.000000e+00	
6.562070e-04	7.896098e-03	1.228253e+00	4.492676e+01	3.673352e-01	2.550541e+05	1.016929e+05	2.884252e+02	1.074400e-01	3.069636e-01	0.000000e+00	
4.079923e-03	7.053294e-03	1.227468e+00	4.492077e+01	3.189692e+00	2.548301e+05	1.016016e+05	2.883505e+02	1.077755e-01	2.307353e-01	0.000000e+00	
1.443072e-03	7.948168e-03	1.228079e+00	4.492140e+01	1.096905e+00	2.550022e+05	1.016721e+05	2.884069e+02	1.074743e-01	2.895440e-01	0.000000e+00	
0.000000e+00	8.334694e-03	1.228360e+00	4.492803e+01	-1.019555e-01	2.550860e+05	1.017058e+05	2.884365e+02	1.074283e-01	3.176442e-01	0.000000e+00	
5.649547e-03	6.136076e-03	1.227196e+00	4.492358e+01	4.111037e+00	2.547544e+05	1.015701e+05	2.883250e+02	1.079895e-01	2.044657e-01	0.000000e+00	
6.165653e-03	5.246729e-03	1.227121e+00	4.492697e+01	4.367500e+00	2.547336e+05	1.015613e+05	2.883177e+02	1.080632e-01	1.971718e-01	0.000000e+00	
5.132945e-03	7.025121e-03	1.227277e+00	4.492072e+01	3.832679e+00	2.547768e+05	1.015795e+05	2.883328e+02	1.079154e-01	2.123231e-01	0.000000e+00	
6.682259e-03	4.358505e-03	1.227050e+00	4.492864e+01	4.600495e+00	2.547139e+05	1.015531e+05	2.883109e+02	1.081300e-01	1.902889e-01	0.000000e+00	
7.201621e-03	3.475135e-03	1.226987e+00	4.492688e+01	4.809836e+00	2.546962e+05	1.015457e+05	2.883048e+02	1.081848e-01	1.841179e-01	0.000000e+00	
7.726474e-03	2.604248e-03	1.226926e+00	4.492130e+01	5.001768e+00	2.546794e+05	1.015387e+05	2.882994e+02	1.082278e-01	1.783043e-01	0.000000e+00	
8.269955e-03	1.746278e-03	1.226877e+00	4.491701e+01	5.175706e+00	2.546656e+05	1.015330e+05	2.882946e+02	1.082697e-01	1.734990e-01	0.000000e+00	
8.800961e-03	8.699527e-04	1.226821e+00	4.491587e+01	5.336680e+00	2.546511e+05	1.015269e+05	2.882904e+02	1.083175e-01	1.684421e-01	0.000000e+00	
2.469716e-03	7.969031e-03	1.227808e+00	4.492180e+01	2.000497e+00	2.549261e+05	1.016411e+05	2.883828e+02	1.075780e-01	2.637044e-01	0.000000e+00	
3.551945e-03	7.943751e-03	1.227576e+00	4.491886e+01	2.826337e+00	2.548603e+05	1.016141e+05	2.883605e+02	1.077014e-01	2.411670e-01	0.000000e+00	
8.530434e-04	8.805935e-03	1.228196e+00	4.493377e+01	5.442052e-01	2.550381e+05	1.016864e+05	2.884201e+02	1.074671e-01	3.015113e-01	0.000000e+00	
4.614579e-03	7.914589e-03	1.227365e+00	4.492007e+01	3.529952e+00	2.548014e+05	1.015897e+05	2.883411e+02	1.078454e-01	2.208584e-01	0.000000e+00	
1.864423e-03	8.915371e-03	1.227961e+00	4.490933e+01	1.494370e+00	2.549682e+05	1.016584e+05	2.883960e+02	1.074852e-01	2.781798e-01	0.000000e+00	
0.000000e+00	9.376531e-03	1.228346e+00	4.492849e+01	-1.579936e-01	2.550839e+05	1.017049e+05	2.884374e+02	1.074309e-01	3.169404e-01	0.000000e+00	
6.694594e-03	6.110577e-03	1.227048e+00	4.492408e+01	4.605478e+00	2.547133e+05	1.015529e+05	2.883111e+02	1.081206e-01	1.901426e-01	0.000000e+00	
6.179908e-03	6.999085e-03	1.227118e+00	4.492136e+01	4.373008e+00	2.547327e+05	1.015611e+05	2.883177e+02	1.080513e-01	1.969601e-01	0.000000e+00	
7.208595e-03	5.222367e-03	1.226984e+00	4.492749e+01	4.814247e+00	2.546958e+05	1.015455e+05	2.883050e+02	1.081876e-01	1.839740e-01	0.000000e+00	
5.664712e-03	7.887928e-03	1.227194e+00	4.492084e+01	4.117495e+00	2.547537e+05	1.015699e+05	2.883248e+02	1.079846e-01	2.042697e-01	0.000000e+00	
7.722643e-03	4.335503e-03	1.226928e+00	4.492850e+01	5.001568e+00	2.546800e+05	1.015389e+05	2.882994e+02	1.082447e-01	1.784383e-01	0.000000e+00	
8.239261e-03	3.453725e-03	1.226877e+00	4.492528e+01	5.170491e+00	2.546659e+05	1.015330e+05	2.882945e+02	1.082879e-01	1.735097e-01	0.000000e+00	
8.762558e-03	2.583435e-03	1.226829e+00	4.492104e+01	5.323468e+00	2.546526e+05	1.015274e+05	2.882902e+02	1.083254e-01	1.688870e-01	0.000000e+00	
9.284767e-03	1.741262e-03	1.226786e+00	4.491725e+01	5.461673e+00	2.546410e+05	1.015226e+05	2.882865e+02	1.083603e-01	1.648800e-01	0.000000e+00	
9.849930e-03	8.536335e-04	1.226743e+00	4.491598e+01	5.585771e+00	2.546298e+05	1.015179e+05	2.882832e+02	1.083980e-01	1.609395e-01	0.000000e+00	
3.008538e-03	8.848286e-03	1.227684e+00	4.491670e+01	2.420411e+00	2.548911e+05	1.016268e+05	2.883712e+02	1.076282e-01	2.517803e-01	0.000000e+00	
4.091922e-03	8.807506e-03	1.227467e+00	4.491949e+01	3.197337e+00	2.548295e+05	1.016014e+05	2.883501e+02	1.077739e-01	2.305698e-01	0.000000e+00	
1.151895e-03	9.939051e-03	1.228161e+00	4.491339e+01	8.531313e-01	2.550233e+05	1.016807e+05	2.884121e+02	1.074344e-01	2.967553e-01	0.000000e+00	
5.148601e-03	8.777900e-03	1.227274e+00	4.492168e+01	3.840120e+00	2.547760e+05	1.015791e+05	2.883324e+02	1.079195e-01	2.120052e-01	0.000000e+00	
2.457634e-03	9.750037e-03	1.227835e+00	4.492485e+01	1.987164e+00	2.549312e+05	1.016431e+05	2.883821e+02	1.075816e-01	2.653675e-01	0.000000e+00	
0.000000e+00	1.041837e-02	1.228362e+00	4.491740e+01	-1.523211e-01	2.550871e+05	1.017064e+05	2.884377e+02	1.074029e-01	3.181498e-01	0.000000e+00	
7.737892e-03	6.086906e-03	1.226925e+00	4.492514e+01	5.007117e+00	2.546796e+05	1.015387e+05	2.882996e+02	1.082384e-01	1.783201e-01	0.000000e+00	
7.225266e-03	6.974862e-03	1.226982e+00	4.492250e+01	4.819766e+00	2.546951e+05	1.015453e+05	2.883050e+02	1.081773e-01	1.837994e-01	0.000000e+00	
6.711116e-03	7.863565e-03	1.227045e+00	4.492102e+01	4.611210e+00	2.547126e+05	1.015527e+05	2.883109e+02	1.081150e-01	1.899296e-01	0.000000e+00	
8.248364e-03	5.198945e-03	1.226876e+00	4.492717e+01	5.174627e+00	2.546659e+05	1.015329e+05	2.882947e+02	1.082936e-01	1.734768e-01	0.000000e+00	
6.196581e-03	8.753254e-03	1.227117e+00	4.492211e+01	4.379736e+00	2.547322e+05	1.015608e+05	2.883173e+02	1.080549e-01	1.967547e-01	0.000000e+00	
8.758237e-03	4.310664e-03	1.226830e+00	4.492722e+01	5.323641e+00	2.546531e+05	1.015276e+05	2.882902e+02	1.083401e-01	1.689825e-01	0.000000e+00	
9.270992e-03	3.427498e-03	1.226791e+00	4.492475e+01	5.455871e+00	2.546420e+05	1.015229e+05	2.882863e+02	1.083761e-01	1.651186e-01	0.000000e+00	
9.788695e-03	2.567407e-03	1.226752e+00	4.492032e+01	5.573456e+00	2.546316e+05	1.015186e+05	2.882830e+02	1.084039e-01	1.615159e-01	0.000000e+00	
1.033760e-02	1.738365e-03	1.226721e+00	4.491858e+01	5.675524e+00	2.546231e+05	1.015151e+05	2.882803e+02	1.084334e-01	1.585521e-01	0.000000e+00	
1.086906e-02	8.977251e-04	1.226693e+00	4.491854e+01	5.767428e+00	2.546157e+05	1.015119e+05	2.882779e+02	1.084641e-01	1.559242e-01	0.000000e+00	
3.569683e-03	9.700853e-03	1.227564e+00	4.493029e+01	2.834172e+00	2.548572e+05	1.016127e+05	2.883595e+02	1.077312e-01	2.399958e-01	0.000000e+00	
4.631722e-03	9.669204e-03	1.227366e+00	4.492625e+01	3.538722e+00	2.548015e+05	1.015897e+05	2.883405e+02	1.078617e-01	2.207917e-01	0.000000e+00	
2.186633e-03	1.060017e-02	1.227896e+00	4.493622e+01	1.737883e+00	2.549498e+05	1.016505e+05	2.883887e+02	1.075775e-01	2.715622e-01	0.000000e+00	
6.925590e-04	1.096611e-02	1.228265e+00	4.491282e+01	4.222655e-01	2.550548e+05	1.016934e+05	2.884238e+02	1.074071e-01	3.073675e-01	0.000000e+00	
5.682034e-03	9.644111e-03	1.227192e+00	4.492695e+01	4.125128e+00	2.547530e+05	1.015695e+05	2.883242e+02	1.080011e-01	2.039494e-01	0.000000e+00	
3.084503e-03	1.059278e-02	1.227680e+00	4.494165e+01	2.480741e+00	2.548892e+05	1.016257e+05	2.883690e+02	1.076965e-01	2.508224e-01	0.000000e+00	
1.591235e-03	1.123548e-02	1.228075e+00	4.491696e+01	1.205034e+00	2.549985e+05	1.016706e+05	2.884037e+02	1.074713e-01	2.883249e-01	0.000000e+00	
0.000000e+00	1.146020e-02	1.228324e+00	4.492122e+01	-1.002163e-01	2.550787e+05	1.017029e+05	2.884368e+02	1.074151e-01	3.152910e-01	0.000000e+00	
8.776842e-03	6.063817e-03	1.226828e+00	4.492552e+01	5.329197e+00	2.546528e+05	1.015275e+05	2.882904e+02	1.083377e-01	1.688964e-01	0.000000e+00	
8.267959e-03	6.951958e-03	1.226873e+00	4.492285e+01	5.180402e+00	2.546651e+05	1.015327e+05	2.882947e+02	1.082852e-01	1.732611e-01	0.000000e+00	
7.755755e-03	7.840727e-03	1.226923e+00	4.492205e+01	5.012264e+00	2.546790e+05	1.015385e+05	2.882995e+02	1.082326e-01	1.781538e-01	0.000000e+00	
7.241898e-03	8.730998e-03	1.226980e+00	4.492300e+01	4.825094e+00	2.546945e+05	1.015451e+05	2.883047e+02	1.081801e-01	1.835893e-01	0.000000e+00	
9.282448e-03	5.173138e-03	1.226788e+00	4.492699e+01	5.460076e+00	2.546417e+05	1.015227e+05	2.882864e+02	1.083829e-01	1.649685e-01	0.000000e+00	
6.727900e-03	9.622558e-03	1.227045e+00	4.492580e+01	4.617615e+00	2.547122e+05	1.015524e+05	2.883104e+02	1.081281e-01	1.897456e-01	0.000000e+00	
9.787601e-03	4.276600e-03	1.226754e+00	4.492663e+01	5.574208e+00	2.546320e+05	1.015187e+05	2.882829e+02	1.084190e-01	1.615809e-01	0.000000e+00	
1.029321e-02	3.386234e-03	1.226721e+00	4.492291e+01	5.671873e+00	2.546231e+05	1.015150e+05	2.882801e+02	1.084427e-01	1.584842e-01	0.000000e+00	
1.078799e-02	2.536993e-03	1.226695e+00	4.491898e+01	5.750769e+00	2.546160e+05	1.015120e+05	2.882779e+02	1.084599e-01	1.560360e-01	0.000000e+00	
1.131344e-02	1.776749e-03	1.226671e+00	4.491892e+01	5.824387e+00	2.546096e+05	1.015094e+05	2.882760e+02	1.084848e-01	1.537956e-01	0.000000e+00	
1.194278e-02	9.712516e-04	1.226650e+00	4.491825e+01	5.893201e+00	2.546042e+05	1.015070e+05	2.882743e+02	1.085067e-01	1.518658e-01	0.000000e+00	
4.116812e-03	1.056224e-02	1.227463e+00	4.493369e+01	3.214888e+00	2.548285e+05	1.016007e+05	2.883493e+02	1.078113e-01	2.300361e-01	0.000000e+00	
5.166410e-03	1.053680e-02	1.227273e+00	4.493139e+01	3.850708e+00	2.547756e+05	1.015788e+05	2.883318e+02	1.079451e-01	2.117738e-01	0.000000e+00	
2.555652e-03	1.147613e-02	1.227777e+00	4.494537e+01	2.056006e+00	2.549188e+05	1.016378e+05	2.883806e+02	1.076434e-01	2.609329e-01	0.000000e+00	
8.499307e-04	1.192244e-02	1.228213e+00	4.492092e+01	5.676940e-01	2.550412e+05	1.016879e+05	2.884202e+02	1.074355e-01	3.027115e-01	0.000000e+00	
6.213630e-03	1.051553e-02	1.227116e+00	4.492944e+01	4.388088e+00	2.547318e+05	1.015606e+05	2.883169e+02	1.080745e-01	1.965365e-01	0.000000e+00	
3.580101e-03	1.145509e-02	1.227561e+00	4.493380e+01	2.852775e+00	2.548569e+05	1.016125e+05	2.883595e+02	1.077426e-01	2.398196e-01	0.000000e+00	
1.954403e-03	1.236100e-02	1.227953e+00	4.492634e+01	1.493527e+00	2.549674e+05	1.016579e+05	2.883963e+02	1.075265e-01	2.776854e-01	0.000000e+00	
0.000000e+00	1.250204e-02	1.228353e+00	4.492884e+01	-9.992317e-02	2.550844e+05	1.017051e+05	2.884363e+02	1.074309e-01	3.170804e-01	0.000000e+00	
9.810305e-03	6.039252e-03	1.226750e+00	4.492535e+01	5.579436e+00	2.546315e+05	1.015185e+05	2.882831e+02	1.084178e-01	1.613952e-01	0.000000e+00	
9.305768e-03	6.929731e-03	1.226786e+00	4.492373e+01	5.465421e+00	2.546412e+05	1.015226e+05	2.882865e+02	1.083769e-01	1.648385e-01	0.000000e+00	
8.796922e-03	7.819035e-03	1.226826e+00	4.492249e+01	5.333952e+00	2.546521e+05	1.015272e+05	2.882902e+02	1.083321e-01	1.687139e-01	0.000000e+00	
8.284826e-03	8.710059e-03	1.226872e+00	4.492289e+01	5.184822e+00	2.546647e+05	1.015325e+05	2.882944e+02	1.082867e-01	1.731089e-01	0.000000e+00	
7.771403e-03	9.602779e-03	1.226923e+00	4.492590e+01	5.017229e+00	2.546787e+05	1.015384e+05	2.882991e+02	1.082432e-01	1.779937e-01	0.000000e+00	
1.031221e-02	5.139589e-03	1.226722e+00	4.492709e+01	5.676099e+00	2.546235e+05	1.015151e+05	2.882801e+02	1.084538e-01	1.585652e-01	0.000000e+00	
7.257744e-03	1.049664e-02	1.226979e+00	4.492913e+01	4.831476e+00	2.546943e+05	1.015449e+05	2.883043e+02	1.081965e-01	1.834202e-01	0.000000e+00	
1.081841e-02	4.217602e-03	1.226694e+00	4.492559e+01	5.759626e+00	2.546159e+05	1.015119e+05	2.882776e+02	1.084784e-01	1.558983e-01	0.000000e+00	
1.133083e-02	3.305182e-03	1.226679e+00	4.492150e+01	5.826450e+00	2.546113e+05	1.015100e+05	2.882757e+02	1.084908e-01	1.543079e-01	0.000000e+00	
1.160811e-02	2.525406e-03	1.226674e+00	4.491939e+01	5.864031e+00	2.546092e+05	1.015091e+05	2.882746e+02	1.084981e-01	1.535958e-01	0.000000e+00	
1.224398e-02	1.919039e-03	1.226641e+00	4.491643e+01	5.922462e+00	2.546014e+05	1.015059e+05	2.882732e+02	1.085125e-01	1.509168e-01	0.000000e+00	
1.302129e-02	1.075149e-03	1.226630e+00	4.491770e+01	5.962129e+00	2.545986e+05	1.015047e+05	2.882722e+02	1.085291e-01	1.498959e-01	0.000000e+00	
4.642418e-03	1.143191e-02	1.227365e+00	4.493077e+01	3.548201e+00	2.548014e+05	1.015896e+05	2.883404e+02	1.078744e-01	2.207094e-01	0.000000e+00	
5.696145e-03	1.141072e-02	1.227189e+00	4.493161e+01	4.134271e+00	2.547524e+05	1.015692e+05	2.883241e+02	1.080145e-01	2.037015e-01	0.000000e+00	
2.990282e-03	1.234662e-02	1.227689e+00	4.492601e+01	2.432429e+00	2.548922e+05	1.016271e+05	2.883711e+02	1.076516e-01	2.520539e-01	0.000000e+00	
9.212897e-04	1.297994e-02	1.228207e+00	4.493584e+01	6.222825e-01	2.550387e+05	1.016866e+05	2.884180e+02	1.074738e-01	3.016665e-01	0.000000e+00	
6.743066e-03	1.139183e-02	1.227043e+00	4.493003e+01	4.625122e+00	2.547120e+05	1.015523e+05	2.883103e+02	1.081401e-01	1.896022e-01	0.000000e+00	
4.105356e-03	1.232899e-02	1.227465e+00	4.492684e+01	3.207726e+00	2.548294e+05	1.016012e+05	2.883499e+02	1.077933e-01	2.304137e-01	0.000000e+00	
2.540602e-03	1.321592e-02	1.227784e+00	4.491418e+01	2.046598e+00	2.549200e+05	1.016387e+05	2.883816e+02	1.075670e-01	2.617249e-01	0.000000e+00	
0.000000e+00	1.354388e-02	1.228343e+00	4.492598e+01	-1.014016e-01	2.550822e+05	1.017043e+05	2.884362e+02	1.074250e-01	3.163941e-01	0.000000e+00	
1.711625e-03	1.337666e-02	1.227976e+00	4.493043e+01	1.309464e+00	2.549757e+05	1.016612e+05	2.884004e+02	1.075198e-01	2.804878e-01	0.000000e+00	
1.033838e-02	6.907107e-03	1.226719e+00	4.492427e+01	5.680358e+00	2.546228e+05	1.015148e+05	2.882802e+02	1.084486e-01	1.583604e-01	0.000000e+00	
1.084015e-02	6.010768e-03	1.226695e+00	4.492630e+01	5.762725e+00	2.546161e+05	1.015120e+05	2.882777e+02	1.084810e-01	1.559757e-01	0.000000e+00	
9.832990e-03	7.798217e-03	1.226749e+00	4.492270e+01	5.583271e+00	2.546310e+05	1.015183e+05	2.882831e+02	1.084128e-01	1.612698e-01	0.000000e+00	
9.323734e-03	8.690202e-03	1.226785e+00	4.492329e+01	5.469049e+00	2.546407e+05	1.015224e+05	2.882862e+02	1.083770e-01	1.646882e-01	0.000000e+00	
8.811953e-03	9.584108e-03	1.226826e+00	4.492550e+01	5.337795e+00	2.546519e+05	1.015271e+05	2.882899e+02	1.083404e-01	1.685933e-01	0.000000e+00	
8.299146e-03	1.047913e-02	1.226871e+00	4.492799e+01	5.189678e+00	2.546645e+05	1.015324e+05	2.882941e+02	1.083002e-01	1.729875e-01	0.000000e+00	
1.134184e-02	5.093179e-03	1.226675e+00	4.492651e+01	5.830847e+00	2.546105e+05	1.015096e+05	2.882756e+02	1.085045e-01	1.539736e-01	0.000000e+00	
7.785782e-03	1.137474e-02	1.226921e+00	4.492996e+01	5.023172e+00	2.546784e+05	1.015382e+05	2.882989e+02	1.082546e-01	1.778564e-01	0.000000e+00	
1.186524e-02	4.097121e-03	1.226653e+00	4.492409e+01	5.886717e+00	2.546048e+05	1.015072e+05	2.882739e+02	1.085182e-01	1.520123e-01	0.000000e+00	
1.236152e-02	3.102998e-03	1.226642e+00	4.492270e+01	5.927697e+00	2.546016e+05	1.015059e+05	2.882727e+02	1.085290e-01	1.508962e-01	0.000000e+00	
1.344011e-02	2.350145e-03	1.226629e+00	4.491897e+01	5.970590e+00	2.545981e+05	1.015044e+05	2.882718e+02	1.085350e-01	1.496857e-01	0.000000e+00	
1.407600e-02	7.129206e-04	1.226627e+00	4.492083e+01	5.979438e+00	2.545976e+05	1.015042e+05	2.882716e+02	1.085424e-01	1.494904e-01	0.000000e+00	
5.172366e-03	1.230886e-02	1.227270e+00	4.492819e+01	3.856075e+00	2.547751e+05	1.015787e+05	2.883321e+02	1.079387e-01	2.116390e-01	0.000000e+00	
6.225373e-03	1.228920e-02	1.227113e+00	4.492817e+01	4.394204e+00	2.547314e+05	1.015604e+05	2.883170e+02	1.080731e-01	1.963910e-01	0.000000e+00	
3.574993e-03	1.322459e-02	1.227586e+00	4.491925e+01	2.845566e+00	2.548619e+05	1.016147e+05	2.883600e+02	1.077045e-01	2.416764e-01	0.000000e+00	
1.020115e-03	1.411060e-02	1.228200e+00	4.492964e+01	6.810063e-01	2.550355e+05	1.016854e+05	2.884164e+02	1.074620e-01	3.006646e-01	0.000000e+00	
7.271061e-03	1.227127e-02	1.226977e+00	4.492890e+01	4.837465e+00	2.546939e+05	1.015447e+05	2.883044e+02	1.081976e-01	1.832856e-01	0.000000e+00	
1.401172e-02	1.492742e-03	1.226629e+00	4.491877e+01	5.979988e+00	2.545979e+05	1.015044e+05	2.882716e+02	1.085375e-01	1.496317e-01	0.000000e+00	
4.644946e-03	1.321005e-02	1.227353e+00	4.492542e+01	3.549846e+00	2.547988e+05	1.015886e+05	2.883406e+02	1.078630e-01	2.198898e-01	0.000000e+00	
2.026933e-03	1.416014e-02	1.227924e+00	4.492299e+01	1.619213e+00	2.549579e+05	1.016540e+05	2.883921e+02	1.075322e-01	2.745081e-01	0.000000e+00	
3.066412e-03	1.413914e-02	1.227682e+00	4.491690e+01	2.462946e+00	2.548897e+05	1.016262e+05	2.883702e+02	1.076346e-01	2.513070e-01	0.000000e+00	
0.000000e+00	1.458571e-02	1.228360e+00	4.492317e+01	-8.612064e-02	2.550854e+05	1.017056e+05	2.884361e+02	1.074168e-01	3.174886e-01	0.000000e+00	
1.136743e-02	6.883039e-03	1.226673e+00	4.492484e+01	5.833975e+00	2.546101e+05	1.015095e+05	2.882757e+02	1.085016e-01	1.538793e-01	0.000000e+00	
1.086408e-02	7.777700e-03	1.226693e+00	4.492362e+01	5.765291e+00	2.546157e+05	1.015118e+05	2.882778e+02	1.084755e-01	1.558681e-01	0.000000e+00	
1.186927e-02	5.979276e-03	1.226655e+00	4.492579e+01	5.888469e+00	2.546053e+05	1.015074e+05	2.882740e+02	1.085227e-01	1.521665e-01	0.000000e+00	
1.035766e-02	8.671378e-03	1.226718e+00	4.492346e+01	5.682955e+00	2.546225e+05	1.015147e+05	2.882801e+02	1.084476e-01	1.582546e-01	0.000000e+00	
9.848357e-03	9.566535e-03	1.226749e+00	4.492486e+01	5.586146e+00	2.546308e+05	1.015182e+05	2.882828e+02	1.084188e-01	1.611711e-01	0.000000e+00	
9.337251e-03	1.046274e-02	1.226784e+00	4.492761e+01	5.472719e+00	2.546406e+05	1.015223e+05	2.882860e+02	1.083884e-01	1.645955e-01	0.000000e+00	
8.825235e-03	1.135907e-02	1.226825e+00	4.492933e+01	5.342335e+00	2.546518e+05	1.015270e+05	2.882898e+02	1.083509e-01	1.685053e-01	0.000000e+00	
1.237235e-02	5.050467e-03	1.226643e+00	4.492583e+01	5.927733e+00	2.546019e+05	1.015059e+05	2.882727e+02	1.085363e-01	1.509433e-01	0.000000e+00	
8.312366e-03	1.225530e-02	1.226870e+00	4.492854e+01	5.194519e+00	2.546642e+05	1.015322e+05	2.882942e+02	1.083030e-01	1.728850e-01	0.000000e+00	
1.284672e-02	4.110094e-03	1.226637e+00	4.492418e+01	5.954674e+00	2.545999e+05	1.015051e+05	2.882719e+02	1.085416e-01	1.502504e-01	0.000000e+00	
1.336876e-02	3.347239e-03	1.226622e+00	4.492291e+01	5.973497e+00	2.545965e+05	1.015037e+05	2.882713e+02	1.085459e-01	1.491054e-01	0.000000e+00	
1.492896e-02	9.867398e-04	1.226635e+00	4.492035e+01	5.954547e+00	2.545997e+05	1.015051e+05	2.882724e+02	1.085326e-01	1.502530e-01	0.000000e+00	
5.703754e-03	1.318958e-02	1.227190e+00	4.492489e+01	4.137467e+00	2.547527e+05	1.015694e+05	2.883243e+02	1.079990e-01	2.038663e-01	0.000000e+00	
6.753741e-03	1.316952e-02	1.227039e+00	4.492569e+01	4.629564e+00	2.547112e+05	1.015520e+05	2.883104e+02	1.081312e-01	1.893749e-01	0.000000e+00	
4.117986e-03	1.411900e-02	1.227454e+00	4.492246e+01	3.217363e+00	2.548267e+05	1.016002e+05	2.883497e+02	1.077856e-01	2.295685e-01	0.000000e+00	
7.102342e-04	1.505752e-02	1.228239e+00	4.493223e+01	4.130897e-01	2.550498e+05	1.016912e+05	2.884235e+02	1.074557e-01	3.054710e-01	0.000000e+00	
1.511651e-03	1.502655e-02	1.228073e+00	4.492089e+01	1.146626e+00	2.549993e+05	1.016709e+05	2.884050e+02	1.074770e-01	2.885531e-01	0.000000e+00	
7.797960e-03	1.315193e-02	1.226920e+00	4.492640e+01	5.027342e+00	2.546781e+05	1.015381e+05	2.882991e+02	1.082474e-01	1.777813e-01	0.000000e+00	
1.452747e-02	2.203483e-03	1.226631e+00	4.491955e+01	5.969588e+00	2.545986e+05	1.015046e+05	2.882719e+02	1.085358e-01	1.498524e-01	0.000000e+00	
1.418073e-02	3.161302e-03	1.226625e+00	4.491992e+01	5.976450e+00	2.545970e+05	1.015040e+05	2.882714e+02	1.085395e-01	1.493062e-01	0.000000e+00	
5.178431e-03	1.409430e-02	1.227271e+00	4.492150e+01	3.857026e+00	2.547753e+05	1.015788e+05	2.883321e+02	1.079228e-01	2.117552e-01	0.000000e+00	
2.520599e-03	1.506255e-02	1.227804e+00	4.492393e+01	2.032369e+00	2.549245e+05	1.016404e+05	2.883815e+02	1.075870e-01	2.631067e-01	0.000000e+00	
3.583424e-03	1.503592e-02	1.227565e+00	4.492185e+01	2.848782e+00	2.548575e+05	1.016129e+05	2.883597e+02	1.077131e-01	2.401908e-01	0.000000e+00	
0.000000e+00	1.562755e-02	1.228347e+00	4.492777e+01	-9.782238e-02	2.550831e+05	1.017046e+05	2.884363e+02	1.074289e-01	3.166629e-01	0.000000e+00	
1.239345e-02	6.855607e-03	1.226641e+00	4.492535e+01	5.930155e+00	2.546017e+05	1.015059e+05	2.882729e+02	1.085361e-01	1.508766e-01	0.000000e+00	
1.189132e-02	7.756175e-03	1.226654e+00	4.492363e+01	5.890209e+00	2.546051e+05	1.015073e+05	2.882741e+02	1.085182e-01	1.521211e-01	0.000000e+00	
1.138701e-02	8.653138e-03	1.226672e+00	4.492356e+01	5.835608e+00	2.546099e+05	1.015094e+05	2.882756e+02	1.084992e-01	1.537971e-01	0.000000e+00	
1.289268e-02	5.944676e-03	1.226634e+00	4.492585e+01	5.957678e+00	2.545994e+05	1.015049e+05	2.882720e+02	1.085467e-01	1.500871e-01	0.000000e+00	
1.088025e-02	9.550094e-03	1.226693e+00	4.492503e+01	5.767307e+00	2.546156e+05	1.015118e+05	2.882775e+02	1.084795e-01	1.558018e-01	0.000000e+00	
1.037141e-02	1.044752e-02	1.226718e+00	4.492703e+01	5.685701e+00	2.546224e+05	1.015146e+05	2.882798e+02	1.084569e-01	1.581845e-01	0.000000e+00	
9.861248e-03	1.134470e-02	1.226748e+00	4.492847e+01	5.589630e+00	2.546307e+05	1.015181e+05	2.882826e+02	1.084285e-01	1.611011e-01	0.000000e+00	
9.350180e-03	1.224112e-02	1.226783e+00	4.492869e+01	5.476654e+00	2.546405e+05	1.015222e+05	2.882860e+02	1.083922e-01	1.645188e-01	0.000000e+00	
1.337839e-02	5.023476e-03	1.226629e+00	4.492493e+01	5.974141e+00	2.545980e+05	1.015043e+05	2.882714e+02	1.085503e-01	1.495732e-01	0.000000e+00	
8.838069e-03	1.313696e-02	1.226823e+00	4.492693e+01	5.346030e+00	2.546514e+05	1.015269e+05	2.882899e+02	1.083464e-01	1.684016e-01	0.000000e+00	
1.383791e-02	4.102393e-03	1.226633e+00	4.492348e+01	5.977654e+00	2.545986e+05	1.015046e+05	2.882712e+02	1.085476e-01	1.497949e-01	0.000000e+00	
6.233001e-03	1.407027e-02	1.227110e+00	4.492269e+01	4.397247e+00	2.547305e+05	1.015601e+05	2.883170e+02	1.080610e-01	1.961689e-01	0.000000e+00	
7.281174e-03	1.404959e-02	1.226975e+00	4.492353e+01	4.840306e+00	2.546935e+05	1.015446e+05	2.883045e+02	1.081857e-01	1.832100e-01	0.000000e+00	
4.648880e-03	1.500328e-02	1.227362e+00	4.492092e+01	3.550456e+00	2.548004e+05	1.015893e+05	2.883405e+02	1.078516e-01	2.204954e-01	0.000000e+00	
8.755337e-04	1.595201e-02	1.228195e+00	4.493498e+01	5.729655e-01	2.550372e+05	1.016860e+05	2.884192e+02	1.074710e-01	3.012004e-01	0.000000e+00	
1.913335e-03	1.601182e-02	1.227959e+00	4.491537e+01	1.519208e+00	2.549676e+05	1.016581e+05	2.883954e+02	1.075019e-01	2.778777e-01	0.000000e+00	
8.324411e-03	1.403274e-02	1.226868e+00	4.492398e+01	5.197665e+00	2.546637e+05	1.015321e+05	2.882943e+02	1.082932e-01	1.727624e-01	0.000000e+00	
1.518973e-02	3.076090e-03	1.226637e+00	4.491998e+01	5.939681e+00	2.546004e+05	1.015054e+05	2.882726e+02	1.085267e-01	1.504933e-01	0.000000e+00	